   4   4   1   0
  0.2633142E+02  0.4225402E-09  0.4225402E-09  0.6811889E-09  0.5000000E-15
  1.000000000000000E-004
  CAR 
 CdIn2S4                                 
     10.00000000     -5.00000000 1601      0.85937514      1.00000000
     -5.000  0.0000E+00  0.2400E+02
     -4.991  0.0000E+00  0.2400E+02
     -4.981  0.0000E+00  0.2400E+02
     -4.972  0.0000E+00  0.2400E+02
     -4.963  0.0000E+00  0.2400E+02
     -4.953  0.0000E+00  0.2400E+02
     -4.944  0.0000E+00  0.2400E+02
     -4.934  0.0000E+00  0.2400E+02
     -4.925  0.0000E+00  0.2400E+02
     -4.916  0.0000E+00  0.2400E+02
     -4.906  0.0000E+00  0.2400E+02
     -4.897  0.0000E+00  0.2400E+02
     -4.888  0.0000E+00  0.2400E+02
     -4.878  0.0000E+00  0.2400E+02
     -4.869  0.0000E+00  0.2400E+02
     -4.859  0.0000E+00  0.2400E+02
     -4.850  0.0000E+00  0.2400E+02
     -4.841  0.0000E+00  0.2400E+02
     -4.831  0.0000E+00  0.2400E+02
     -4.822  0.0000E+00  0.2400E+02
     -4.812  0.0000E+00  0.2400E+02
     -4.803  0.0000E+00  0.2400E+02
     -4.794  0.0000E+00  0.2400E+02
     -4.784  0.0000E+00  0.2400E+02
     -4.775  0.0000E+00  0.2400E+02
     -4.766  0.0000E+00  0.2400E+02
     -4.756  0.0000E+00  0.2400E+02
     -4.747  0.0000E+00  0.2400E+02
     -4.737  0.0000E+00  0.2400E+02
     -4.728  0.0000E+00  0.2400E+02
     -4.719  0.0000E+00  0.2400E+02
     -4.709  0.0000E+00  0.2400E+02
     -4.700  0.0000E+00  0.2400E+02
     -4.691  0.0000E+00  0.2400E+02
     -4.681  0.0000E+00  0.2400E+02
     -4.672  0.0000E+00  0.2400E+02
     -4.662  0.0000E+00  0.2400E+02
     -4.653  0.0000E+00  0.2400E+02
     -4.644  0.0000E+00  0.2400E+02
     -4.634  0.0000E+00  0.2400E+02
     -4.625  0.0000E+00  0.2400E+02
     -4.616  0.0000E+00  0.2400E+02
     -4.606  0.0000E+00  0.2400E+02
     -4.597  0.0000E+00  0.2400E+02
     -4.588  0.0000E+00  0.2400E+02
     -4.578  0.0000E+00  0.2400E+02
     -4.569  0.0000E+00  0.2400E+02
     -4.559  0.0000E+00  0.2400E+02
     -4.550  0.0000E+00  0.2400E+02
     -4.541  0.0000E+00  0.2400E+02
     -4.531  0.0000E+00  0.2400E+02
     -4.522  0.0000E+00  0.2400E+02
     -4.513  0.0000E+00  0.2400E+02
     -4.503  0.0000E+00  0.2400E+02
     -4.494  0.0000E+00  0.2400E+02
     -4.484  0.0000E+00  0.2400E+02
     -4.475  0.0000E+00  0.2400E+02
     -4.466  0.0000E+00  0.2400E+02
     -4.456  0.0000E+00  0.2400E+02
     -4.447  0.0000E+00  0.2400E+02
     -4.438  0.0000E+00  0.2400E+02
     -4.428  0.0000E+00  0.2400E+02
     -4.419  0.0000E+00  0.2400E+02
     -4.409  0.0000E+00  0.2400E+02
     -4.400  0.0000E+00  0.2400E+02
     -4.391  0.0000E+00  0.2400E+02
     -4.381  0.0000E+00  0.2400E+02
     -4.372  0.0000E+00  0.2400E+02
     -4.362  0.0000E+00  0.2400E+02
     -4.353  0.0000E+00  0.2400E+02
     -4.344  0.0000E+00  0.2400E+02
     -4.334  0.0000E+00  0.2400E+02
     -4.325  0.0000E+00  0.2400E+02
     -4.316  0.0000E+00  0.2400E+02
     -4.306  0.0000E+00  0.2400E+02
     -4.297  0.0000E+00  0.2400E+02
     -4.287  0.0000E+00  0.2400E+02
     -4.278  0.0000E+00  0.2400E+02
     -4.269  0.0000E+00  0.2400E+02
     -4.259  0.0000E+00  0.2400E+02
     -4.250  0.0000E+00  0.2400E+02
     -4.241  0.0000E+00  0.2400E+02
     -4.231  0.0000E+00  0.2400E+02
     -4.222  0.0000E+00  0.2400E+02
     -4.213  0.0000E+00  0.2400E+02
     -4.203  0.0000E+00  0.2400E+02
     -4.194  0.0000E+00  0.2400E+02
     -4.184  0.0000E+00  0.2400E+02
     -4.175  0.0000E+00  0.2400E+02
     -4.166  0.0000E+00  0.2400E+02
     -4.156  0.0000E+00  0.2400E+02
     -4.147  0.0000E+00  0.2400E+02
     -4.138  0.0000E+00  0.2400E+02
     -4.128  0.0000E+00  0.2400E+02
     -4.119  0.0000E+00  0.2400E+02
     -4.109  0.0000E+00  0.2400E+02
     -4.100  0.0000E+00  0.2400E+02
     -4.091  0.0000E+00  0.2400E+02
     -4.081  0.0000E+00  0.2400E+02
     -4.072  0.0000E+00  0.2400E+02
     -4.062  0.0000E+00  0.2400E+02
     -4.053  0.0000E+00  0.2400E+02
     -4.044  0.0000E+00  0.2400E+02
     -4.034  0.0000E+00  0.2400E+02
     -4.025  0.0000E+00  0.2400E+02
     -4.016  0.0000E+00  0.2400E+02
     -4.006  0.0000E+00  0.2400E+02
     -3.997  0.0000E+00  0.2400E+02
     -3.987  0.0000E+00  0.2400E+02
     -3.978  0.0000E+00  0.2400E+02
     -3.969  0.0000E+00  0.2400E+02
     -3.959  0.0000E+00  0.2400E+02
     -3.950  0.0000E+00  0.2400E+02
     -3.941  0.0000E+00  0.2400E+02
     -3.931  0.0000E+00  0.2400E+02
     -3.922  0.0000E+00  0.2400E+02
     -3.913  0.0000E+00  0.2400E+02
     -3.903  0.0000E+00  0.2400E+02
     -3.894  0.0000E+00  0.2400E+02
     -3.884  0.0000E+00  0.2400E+02
     -3.875  0.0000E+00  0.2400E+02
     -3.866  0.0000E+00  0.2400E+02
     -3.856  0.0000E+00  0.2400E+02
     -3.847  0.0000E+00  0.2400E+02
     -3.838  0.0000E+00  0.2400E+02
     -3.828  0.0000E+00  0.2400E+02
     -3.819  0.0000E+00  0.2400E+02
     -3.809  0.0000E+00  0.2400E+02
     -3.800  0.0000E+00  0.2400E+02
     -3.791  0.0000E+00  0.2400E+02
     -3.781  0.0000E+00  0.2400E+02
     -3.772  0.0000E+00  0.2400E+02
     -3.763  0.0000E+00  0.2400E+02
     -3.753  0.0000E+00  0.2400E+02
     -3.744  0.0000E+00  0.2400E+02
     -3.734  0.0000E+00  0.2400E+02
     -3.725  0.0000E+00  0.2400E+02
     -3.716  0.0000E+00  0.2400E+02
     -3.706  0.0000E+00  0.2400E+02
     -3.697  0.0000E+00  0.2400E+02
     -3.688  0.0000E+00  0.2400E+02
     -3.678  0.0000E+00  0.2400E+02
     -3.669  0.0000E+00  0.2400E+02
     -3.659  0.0000E+00  0.2400E+02
     -3.650  0.0000E+00  0.2400E+02
     -3.641  0.0000E+00  0.2400E+02
     -3.631  0.0000E+00  0.2400E+02
     -3.622  0.0000E+00  0.2400E+02
     -3.612  0.0000E+00  0.2400E+02
     -3.603  0.0000E+00  0.2400E+02
     -3.594  0.0000E+00  0.2400E+02
     -3.584  0.0000E+00  0.2400E+02
     -3.575  0.0000E+00  0.2400E+02
     -3.566  0.0000E+00  0.2400E+02
     -3.556  0.0000E+00  0.2400E+02
     -3.547  0.0000E+00  0.2400E+02
     -3.538  0.0000E+00  0.2400E+02
     -3.528  0.0000E+00  0.2400E+02
     -3.519  0.0000E+00  0.2400E+02
     -3.509  0.0000E+00  0.2400E+02
     -3.500  0.0000E+00  0.2400E+02
     -3.491  0.0000E+00  0.2400E+02
     -3.481  0.0000E+00  0.2400E+02
     -3.472  0.0000E+00  0.2400E+02
     -3.463  0.0000E+00  0.2400E+02
     -3.453  0.0000E+00  0.2400E+02
     -3.444  0.0000E+00  0.2400E+02
     -3.434  0.0000E+00  0.2400E+02
     -3.425  0.0000E+00  0.2400E+02
     -3.416  0.0000E+00  0.2400E+02
     -3.406  0.0000E+00  0.2400E+02
     -3.397  0.0000E+00  0.2400E+02
     -3.388  0.0000E+00  0.2400E+02
     -3.378  0.0000E+00  0.2400E+02
     -3.369  0.0000E+00  0.2400E+02
     -3.359  0.0000E+00  0.2400E+02
     -3.350  0.0000E+00  0.2400E+02
     -3.341  0.0000E+00  0.2400E+02
     -3.331  0.0000E+00  0.2400E+02
     -3.322  0.0000E+00  0.2400E+02
     -3.312  0.0000E+00  0.2400E+02
     -3.303  0.0000E+00  0.2400E+02
     -3.294  0.0000E+00  0.2400E+02
     -3.284  0.0000E+00  0.2400E+02
     -3.275  0.0000E+00  0.2400E+02
     -3.266  0.0000E+00  0.2400E+02
     -3.256  0.0000E+00  0.2400E+02
     -3.247  0.0000E+00  0.2400E+02
     -3.237  0.0000E+00  0.2400E+02
     -3.228  0.0000E+00  0.2400E+02
     -3.219  0.0000E+00  0.2400E+02
     -3.209  0.0000E+00  0.2400E+02
     -3.200  0.0000E+00  0.2400E+02
     -3.191  0.2386E-03  0.2400E+02
     -3.181  0.1829E-02  0.2400E+02
     -3.172  0.4912E-02  0.2400E+02
     -3.163  0.9488E-02  0.2400E+02
     -3.153  0.1556E-01  0.2400E+02
     -3.144  0.2312E-01  0.2400E+02
     -3.134  0.3217E-01  0.2400E+02
     -3.125  0.4272E-01  0.2400E+02
     -3.116  0.5476E-01  0.2400E+02
     -3.106  0.6829E-01  0.2400E+02
     -3.097  0.8332E-01  0.2400E+02
     -3.088  0.9983E-01  0.2400E+02
     -3.078  0.1178E+00  0.2400E+02
     -3.069  0.1373E+00  0.2401E+02
     -3.059  0.1583E+00  0.2401E+02
     -3.050  0.1808E+00  0.2401E+02
     -3.041  0.2048E+00  0.2401E+02
     -3.031  0.2303E+00  0.2401E+02
     -3.022  0.2573E+00  0.2401E+02
     -3.013  0.2857E+00  0.2402E+02
     -3.003  0.3157E+00  0.2402E+02
     -2.994  0.3471E+00  0.2402E+02
     -2.984  0.3801E+00  0.2403E+02
     -2.975  0.4145E+00  0.2403E+02
     -2.966  0.4504E+00  0.2403E+02
     -2.956  0.4878E+00  0.2404E+02
     -2.947  0.5267E+00  0.2404E+02
     -2.938  0.5671E+00  0.2405E+02
     -2.928  0.6090E+00  0.2405E+02
     -2.919  0.6524E+00  0.2406E+02
     -2.909  0.6973E+00  0.2407E+02
     -2.900  0.7437E+00  0.2407E+02
     -2.891  0.7915E+00  0.2408E+02
     -2.881  0.8409E+00  0.2409E+02
     -2.872  0.8918E+00  0.2410E+02
     -2.863  0.9441E+00  0.2410E+02
     -2.853  0.9979E+00  0.2411E+02
     -2.844  0.1053E+01  0.2412E+02
     -2.834  0.2186E+01  0.2414E+02
     -2.825  0.5341E+01  0.2417E+02
     -2.816  0.6186E+01  0.2423E+02
     -2.806  0.6967E+01  0.2429E+02
     -2.797  0.7684E+01  0.2436E+02
     -2.788  0.8336E+01  0.2443E+02
     -2.778  0.8924E+01  0.2451E+02
     -2.769  0.9448E+01  0.2460E+02
     -2.759  0.9907E+01  0.2469E+02
     -2.750  0.1030E+02  0.2479E+02
     -2.741  0.1063E+02  0.2488E+02
     -2.731  0.1090E+02  0.2499E+02
     -2.722  0.1110E+02  0.2509E+02
     -2.712  0.1124E+02  0.2519E+02
     -2.703  0.1131E+02  0.2530E+02
     -2.694  0.1132E+02  0.2541E+02
     -2.684  0.1127E+02  0.2551E+02
     -2.675  0.6338E+01  0.2559E+02
     -2.666  0.5538E+01  0.2565E+02
     -2.656  0.4832E+01  0.2570E+02
     -2.647  0.4222E+01  0.2574E+02
     -2.638  0.3707E+01  0.2577E+02
     -2.628  0.3287E+01  0.2581E+02
     -2.619  0.2962E+01  0.2584E+02
     -2.609  0.2733E+01  0.2586E+02
     -2.600  0.2598E+01  0.2589E+02
     -2.591  0.2555E+01  0.2591E+02
     -2.581  0.2539E+01  0.2594E+02
     -2.572  0.2524E+01  0.2596E+02
     -2.562  0.2510E+01  0.2598E+02
     -2.553  0.2497E+01  0.2601E+02
     -2.544  0.2486E+01  0.2603E+02
     -2.534  0.2477E+01  0.2605E+02
     -2.525  0.2468E+01  0.2608E+02
     -2.516  0.2461E+01  0.2610E+02
     -2.506  0.2456E+01  0.2612E+02
     -2.497  0.2452E+01  0.2615E+02
     -2.488  0.2449E+01  0.2617E+02
     -2.478  0.2447E+01  0.2619E+02
     -2.469  0.2447E+01  0.2621E+02
     -2.459  0.2449E+01  0.2624E+02
     -2.450  0.2451E+01  0.2626E+02
     -2.441  0.2455E+01  0.2628E+02
     -2.431  0.2461E+01  0.2631E+02
     -2.422  0.2468E+01  0.2633E+02
     -2.413  0.2476E+01  0.2635E+02
     -2.403  0.2485E+01  0.2638E+02
     -2.394  0.2496E+01  0.2640E+02
     -2.384  0.2509E+01  0.2642E+02
     -2.375  0.2522E+01  0.2645E+02
     -2.366  0.2537E+01  0.2647E+02
     -2.356  0.2554E+01  0.2649E+02
     -2.347  0.2572E+01  0.2652E+02
     -2.337  0.2591E+01  0.2654E+02
     -2.328  0.2611E+01  0.2657E+02
     -2.319  0.2633E+01  0.2659E+02
     -2.309  0.2657E+01  0.2662E+02
     -2.300  0.2695E+01  0.2664E+02
     -2.291  0.2749E+01  0.2667E+02
     -2.281  0.2803E+01  0.2669E+02
     -2.272  0.2857E+01  0.2672E+02
     -2.263  0.2911E+01  0.2675E+02
     -2.253  0.2965E+01  0.2677E+02
     -2.244  0.3019E+01  0.2680E+02
     -2.234  0.3073E+01  0.2683E+02
     -2.225  0.3127E+01  0.2686E+02
     -2.216  0.3180E+01  0.2689E+02
     -2.206  0.3234E+01  0.2692E+02
     -2.197  0.3288E+01  0.2695E+02
     -2.188  0.3342E+01  0.2698E+02
     -2.178  0.3395E+01  0.2701E+02
     -2.169  0.2315E+01  0.2704E+02
     -2.159  0.2277E+01  0.2706E+02
     -2.150  0.2238E+01  0.2708E+02
     -2.141  0.2198E+01  0.2710E+02
     -2.131  0.2156E+01  0.2712E+02
     -2.122  0.2114E+01  0.2714E+02
     -2.113  0.2070E+01  0.2716E+02
     -2.103  0.2025E+01  0.2718E+02
     -2.094  0.1978E+01  0.2720E+02
     -2.084  0.1930E+01  0.2722E+02
     -2.075  0.1881E+01  0.2723E+02
     -2.066  0.1831E+01  0.2725E+02
     -2.056  0.1779E+01  0.2727E+02
     -2.047  0.1727E+01  0.2728E+02
     -2.038  0.1673E+01  0.2730E+02
     -2.028  0.1617E+01  0.2732E+02
     -2.019  0.1561E+01  0.2733E+02
     -2.009  0.1503E+01  0.2734E+02
     -2.000  0.1444E+01  0.2736E+02
     -1.991  0.1383E+01  0.2737E+02
     -1.981  0.1322E+01  0.2738E+02
     -1.972  0.1259E+01  0.2740E+02
     -1.962  0.1195E+01  0.2741E+02
     -1.953  0.1129E+01  0.2742E+02
     -1.944  0.1064E+01  0.2743E+02
     -1.934  0.9999E+00  0.2744E+02
     -1.925  0.9364E+00  0.2745E+02
     -1.916  0.8736E+00  0.2746E+02
     -1.906  0.8115E+00  0.2746E+02
     -1.897  0.7503E+00  0.2747E+02
     -1.888  0.7399E+00  0.2748E+02
     -1.878  0.7511E+00  0.2749E+02
     -1.869  0.7644E+00  0.2749E+02
     -1.859  0.7797E+00  0.2750E+02
     -1.850  0.7970E+00  0.2751E+02
     -1.841  0.8164E+00  0.2752E+02
     -1.831  0.8378E+00  0.2752E+02
     -1.822  0.8613E+00  0.2753E+02
     -1.812  0.8868E+00  0.2754E+02
     -1.803  0.9143E+00  0.2755E+02
     -1.794  0.9438E+00  0.2756E+02
     -1.784  0.9754E+00  0.2757E+02
     -1.775  0.1009E+01  0.2757E+02
     -1.766  0.1045E+01  0.2758E+02
     -1.756  0.1082E+01  0.2759E+02
     -1.747  0.1122E+01  0.2760E+02
     -1.738  0.1164E+01  0.2762E+02
     -1.728  0.1208E+01  0.2763E+02
     -1.719  0.1254E+01  0.2764E+02
     -1.709  0.1301E+01  0.2765E+02
     -1.700  0.1351E+01  0.2766E+02
     -1.691  0.1403E+01  0.2768E+02
     -1.681  0.1457E+01  0.2769E+02
     -1.672  0.1513E+01  0.2770E+02
     -1.663  0.1571E+01  0.2772E+02
     -1.653  0.1638E+01  0.2773E+02
     -1.644  0.1712E+01  0.2775E+02
     -1.634  0.1783E+01  0.2776E+02
     -1.625  0.1850E+01  0.2778E+02
     -1.616  0.1915E+01  0.2780E+02
     -1.606  0.1977E+01  0.2782E+02
     -1.597  0.2036E+01  0.2784E+02
     -1.587  0.2092E+01  0.2786E+02
     -1.578  0.2145E+01  0.2787E+02
     -1.569  0.2195E+01  0.2790E+02
     -1.559  0.2242E+01  0.2792E+02
     -1.550  0.2286E+01  0.2794E+02
     -1.541  0.2327E+01  0.2796E+02
     -1.531  0.2365E+01  0.2798E+02
     -1.522  0.2400E+01  0.2800E+02
     -1.513  0.2432E+01  0.2803E+02
     -1.503  0.2458E+01  0.2805E+02
     -1.494  0.2468E+01  0.2807E+02
     -1.484  0.2477E+01  0.2810E+02
     -1.475  0.2485E+01  0.2812E+02
     -1.466  0.2494E+01  0.2814E+02
     -1.456  0.2501E+01  0.2817E+02
     -1.447  0.2508E+01  0.2819E+02
     -1.438  0.2514E+01  0.2821E+02
     -1.428  0.2520E+01  0.2824E+02
     -1.419  0.2525E+01  0.2826E+02
     -1.409  0.2529E+01  0.2828E+02
     -1.400  0.2533E+01  0.2831E+02
     -1.391  0.2536E+01  0.2833E+02
     -1.381  0.2539E+01  0.2835E+02
     -1.372  0.2541E+01  0.2838E+02
     -1.363  0.2542E+01  0.2840E+02
     -1.353  0.2543E+01  0.2843E+02
     -1.344  0.2543E+01  0.2845E+02
     -1.334  0.2543E+01  0.2847E+02
     -1.325  0.2542E+01  0.2850E+02
     -1.316  0.2540E+01  0.2852E+02
     -1.306  0.2538E+01  0.2855E+02
     -1.297  0.2535E+01  0.2857E+02
     -1.288  0.2532E+01  0.2859E+02
     -1.278  0.2527E+01  0.2862E+02
     -1.269  0.2523E+01  0.2864E+02
     -1.259  0.2518E+01  0.2866E+02
     -1.250  0.2512E+01  0.2869E+02
     -1.241  0.2505E+01  0.2871E+02
     -1.231  0.2498E+01  0.2873E+02
     -1.222  0.2490E+01  0.2876E+02
     -1.213  0.2482E+01  0.2878E+02
     -1.203  0.2473E+01  0.2880E+02
     -1.194  0.2464E+01  0.2883E+02
     -1.184  0.2453E+01  0.2885E+02
     -1.175  0.2443E+01  0.2887E+02
     -1.166  0.2431E+01  0.2890E+02
     -1.156  0.2419E+01  0.2892E+02
     -1.147  0.2407E+01  0.2894E+02
     -1.138  0.2394E+01  0.2896E+02
     -1.128  0.2380E+01  0.2899E+02
     -1.119  0.2366E+01  0.2901E+02
     -1.109  0.2351E+01  0.2903E+02
     -1.100  0.2335E+01  0.2905E+02
     -1.091  0.2319E+01  0.2907E+02
     -1.081  0.2302E+01  0.2910E+02
     -1.072  0.2285E+01  0.2912E+02
     -1.062  0.2267E+01  0.2914E+02
     -1.053  0.2248E+01  0.2916E+02
     -1.044  0.2229E+01  0.2918E+02
     -1.034  0.2209E+01  0.2920E+02
     -1.025  0.2189E+01  0.2922E+02
     -1.016  0.2168E+01  0.2924E+02
     -1.006  0.2146E+01  0.2926E+02
     -0.997  0.2124E+01  0.2928E+02
     -0.987  0.2125E+01  0.2930E+02
     -0.978  0.2133E+01  0.2932E+02
     -0.969  0.2147E+01  0.2934E+02
     -0.959  0.2166E+01  0.2936E+02
     -0.950  0.2191E+01  0.2938E+02
     -0.941  0.1332E+01  0.2940E+02
     -0.931  0.1383E+01  0.2942E+02
     -0.922  0.1441E+01  0.2943E+02
     -0.913  0.1504E+01  0.2944E+02
     -0.903  0.1573E+01  0.2946E+02
     -0.894  0.1648E+01  0.2947E+02
     -0.884  0.1730E+01  0.2949E+02
     -0.875  0.1817E+01  0.2950E+02
     -0.866  0.1910E+01  0.2952E+02
     -0.856  0.2009E+01  0.2954E+02
     -0.847  0.2114E+01  0.2956E+02
     -0.838  0.2225E+01  0.2958E+02
     -0.828  0.2342E+01  0.2960E+02
     -0.819  0.2463E+01  0.2962E+02
     -0.809  0.2587E+01  0.2965E+02
     -0.800  0.2711E+01  0.2967E+02
     -0.791  0.2836E+01  0.2970E+02
     -0.781  0.2963E+01  0.2973E+02
     -0.772  0.3091E+01  0.2975E+02
     -0.763  0.3219E+01  0.2978E+02
     -0.753  0.3349E+01  0.2981E+02
     -0.744  0.3480E+01  0.2985E+02
     -0.734  0.3613E+01  0.2988E+02
     -0.725  0.3746E+01  0.2991E+02
     -0.716  0.3881E+01  0.2995E+02
     -0.706  0.4016E+01  0.2999E+02
     -0.697  0.4153E+01  0.3003E+02
     -0.688  0.4291E+01  0.3006E+02
     -0.678  0.4430E+01  0.3011E+02
     -0.669  0.4570E+01  0.3015E+02
     -0.659  0.4712E+01  0.3019E+02
     -0.650  0.4854E+01  0.3024E+02
     -0.641  0.4998E+01  0.3028E+02
     -0.631  0.5143E+01  0.3033E+02
     -0.622  0.5154E+01  0.3038E+02
     -0.612  0.5091E+01  0.3043E+02
     -0.603  0.5027E+01  0.3047E+02
     -0.594  0.4962E+01  0.3052E+02
     -0.584  0.4898E+01  0.3057E+02
     -0.575  0.4835E+01  0.3061E+02
     -0.566  0.4771E+01  0.3066E+02
     -0.556  0.4708E+01  0.3070E+02
     -0.547  0.4644E+01  0.3075E+02
     -0.538  0.4580E+01  0.3079E+02
     -0.528  0.4516E+01  0.3083E+02
     -0.519  0.4452E+01  0.3087E+02
     -0.509  0.4388E+01  0.3092E+02
     -0.500  0.4324E+01  0.3096E+02
     -0.491  0.4259E+01  0.3100E+02
     -0.481  0.4194E+01  0.3104E+02
     -0.472  0.4129E+01  0.3108E+02
     -0.463  0.4064E+01  0.3111E+02
     -0.453  0.3999E+01  0.3115E+02
     -0.444  0.3934E+01  0.3119E+02
     -0.434  0.3868E+01  0.3123E+02
     -0.425  0.3802E+01  0.3126E+02
     -0.416  0.3736E+01  0.3130E+02
     -0.406  0.3670E+01  0.3133E+02
     -0.397  0.2770E+01  0.3136E+02
     -0.388  0.2795E+01  0.3139E+02
     -0.378  0.2823E+01  0.3141E+02
     -0.369  0.2852E+01  0.3144E+02
     -0.359  0.2883E+01  0.3147E+02
     -0.350  0.2915E+01  0.3149E+02
     -0.341  0.2950E+01  0.3152E+02
     -0.331  0.2986E+01  0.3155E+02
     -0.322  0.3023E+01  0.3158E+02
     -0.312  0.3062E+01  0.3161E+02
     -0.303  0.3103E+01  0.3164E+02
     -0.294  0.3231E+01  0.3166E+02
     -0.284  0.3404E+01  0.3170E+02
     -0.275  0.3579E+01  0.3173E+02
     -0.266  0.3756E+01  0.3176E+02
     -0.256  0.3934E+01  0.3180E+02
     -0.247  0.4115E+01  0.3184E+02
     -0.237  0.4297E+01  0.3188E+02
     -0.228  0.4481E+01  0.3192E+02
     -0.219  0.4666E+01  0.3196E+02
     -0.209  0.4854E+01  0.3200E+02
     -0.200  0.5043E+01  0.3205E+02
     -0.191  0.5234E+01  0.3210E+02
     -0.181  0.5427E+01  0.3215E+02
     -0.172  0.5622E+01  0.3220E+02
     -0.163  0.5818E+01  0.3225E+02
     -0.153  0.6017E+01  0.3231E+02
     -0.144  0.6217E+01  0.3237E+02
     -0.134  0.6418E+01  0.3243E+02
     -0.125  0.6622E+01  0.3249E+02
     -0.116  0.6827E+01  0.3255E+02
     -0.106  0.7035E+01  0.3262E+02
     -0.097  0.7244E+01  0.3268E+02
     -0.088  0.7454E+01  0.3275E+02
     -0.078  0.7667E+01  0.3282E+02
     -0.069  0.7881E+01  0.3290E+02
     -0.059  0.8097E+01  0.3297E+02
     -0.050  0.8315E+01  0.3305E+02
     -0.041  0.8535E+01  0.3313E+02
     -0.031  0.8756E+01  0.3321E+02
     -0.022  0.8980E+01  0.3329E+02
     -0.013  0.9205E+01  0.3338E+02
     -0.003  0.9432E+01  0.3346E+02
      0.006  0.9660E+01  0.3355E+02
      0.016  0.9891E+01  0.3364E+02
      0.025  0.1012E+02  0.3374E+02
      0.034  0.1036E+02  0.3383E+02
      0.044  0.8466E+01  0.3392E+02
      0.053  0.8317E+01  0.3400E+02
      0.062  0.8171E+01  0.3408E+02
      0.072  0.8029E+01  0.3415E+02
      0.081  0.7890E+01  0.3423E+02
      0.091  0.6136E+01  0.3429E+02
      0.100  0.5873E+01  0.3435E+02
      0.109  0.5613E+01  0.3440E+02
      0.119  0.5355E+01  0.3446E+02
      0.128  0.5233E+01  0.3450E+02
      0.138  0.5147E+01  0.3455E+02
      0.147  0.5060E+01  0.3460E+02
      0.156  0.4971E+01  0.3465E+02
      0.166  0.4881E+01  0.3469E+02
      0.175  0.4790E+01  0.3474E+02
      0.184  0.4699E+01  0.3478E+02
      0.194  0.4606E+01  0.3483E+02
      0.203  0.4513E+01  0.3487E+02
      0.212  0.4418E+01  0.3491E+02
      0.222  0.4323E+01  0.3495E+02
      0.231  0.4226E+01  0.3499E+02
      0.241  0.4129E+01  0.3503E+02
      0.250  0.4030E+01  0.3507E+02
      0.259  0.3931E+01  0.3511E+02
      0.269  0.3831E+01  0.3514E+02
      0.278  0.3729E+01  0.3518E+02
      0.287  0.3627E+01  0.3521E+02
      0.297  0.3524E+01  0.3525E+02
      0.306  0.3420E+01  0.3528E+02
      0.316  0.3315E+01  0.3531E+02
      0.325  0.3213E+01  0.3534E+02
      0.334  0.3117E+01  0.3537E+02
      0.344  0.3019E+01  0.3540E+02
      0.353  0.2921E+01  0.3543E+02
      0.362  0.2849E+01  0.3546E+02
      0.372  0.2777E+01  0.3548E+02
      0.381  0.2705E+01  0.3551E+02
      0.391  0.2633E+01  0.3553E+02
      0.400  0.2561E+01  0.3556E+02
      0.409  0.2489E+01  0.3558E+02
      0.419  0.2417E+01  0.3560E+02
      0.428  0.2345E+01  0.3563E+02
      0.438  0.2273E+01  0.3565E+02
      0.447  0.2201E+01  0.3567E+02
      0.456  0.2129E+01  0.3569E+02
      0.466  0.2057E+01  0.3571E+02
      0.475  0.1985E+01  0.3573E+02
      0.484  0.1913E+01  0.3575E+02
      0.494  0.1842E+01  0.3576E+02
      0.503  0.1770E+01  0.3578E+02
      0.513  0.1698E+01  0.3580E+02
      0.522  0.1626E+01  0.3581E+02
      0.531  0.1554E+01  0.3583E+02
      0.541  0.1483E+01  0.3584E+02
      0.550  0.1411E+01  0.3586E+02
      0.559  0.1339E+01  0.3587E+02
      0.569  0.1267E+01  0.3588E+02
      0.578  0.1196E+01  0.3589E+02
      0.587  0.1124E+01  0.3590E+02
      0.597  0.1052E+01  0.3591E+02
      0.606  0.9805E+00  0.3592E+02
      0.616  0.9089E+00  0.3593E+02
      0.625  0.8372E+00  0.3594E+02
      0.634  0.7656E+00  0.3595E+02
      0.644  0.6940E+00  0.3595E+02
      0.653  0.6224E+00  0.3596E+02
      0.662  0.5508E+00  0.3597E+02
      0.672  0.4796E+00  0.3597E+02
      0.681  0.4319E+00  0.3597E+02
      0.691  0.3866E+00  0.3598E+02
      0.700  0.3439E+00  0.3598E+02
      0.709  0.3037E+00  0.3599E+02
      0.719  0.2659E+00  0.3599E+02
      0.728  0.2307E+00  0.3599E+02
      0.737  0.1980E+00  0.3599E+02
      0.747  0.1678E+00  0.3599E+02
      0.756  0.1401E+00  0.3600E+02
      0.766  0.1149E+00  0.3600E+02
      0.775  0.9217E-01  0.3600E+02
      0.784  0.7198E-01  0.3600E+02
      0.794  0.5429E-01  0.3600E+02
      0.803  0.3910E-01  0.3600E+02
      0.812  0.2642E-01  0.3600E+02
      0.822  0.1624E-01  0.3600E+02
      0.831  0.8563E-02  0.3600E+02
      0.841  0.3360E-02  0.3600E+02
      0.850  0.5482E-03  0.3600E+02
      0.859  0.0000E+00  0.3600E+02
      0.869  0.0000E+00  0.3600E+02
      0.878  0.0000E+00  0.3600E+02
      0.888  0.0000E+00  0.3600E+02
      0.897  0.0000E+00  0.3600E+02
      0.906  0.0000E+00  0.3600E+02
      0.916  0.0000E+00  0.3600E+02
      0.925  0.0000E+00  0.3600E+02
      0.934  0.0000E+00  0.3600E+02
      0.944  0.0000E+00  0.3600E+02
      0.953  0.0000E+00  0.3600E+02
      0.962  0.0000E+00  0.3600E+02
      0.972  0.0000E+00  0.3600E+02
      0.981  0.0000E+00  0.3600E+02
      0.991  0.0000E+00  0.3600E+02
      1.000  0.0000E+00  0.3600E+02
      1.009  0.0000E+00  0.3600E+02
      1.019  0.0000E+00  0.3600E+02
      1.028  0.0000E+00  0.3600E+02
      1.037  0.0000E+00  0.3600E+02
      1.047  0.0000E+00  0.3600E+02
      1.056  0.0000E+00  0.3600E+02
      1.066  0.0000E+00  0.3600E+02
      1.075  0.0000E+00  0.3600E+02
      1.084  0.0000E+00  0.3600E+02
      1.094  0.0000E+00  0.3600E+02
      1.103  0.0000E+00  0.3600E+02
      1.112  0.0000E+00  0.3600E+02
      1.122  0.0000E+00  0.3600E+02
      1.131  0.0000E+00  0.3600E+02
      1.141  0.0000E+00  0.3600E+02
      1.150  0.0000E+00  0.3600E+02
      1.159  0.0000E+00  0.3600E+02
      1.169  0.0000E+00  0.3600E+02
      1.178  0.0000E+00  0.3600E+02
      1.188  0.0000E+00  0.3600E+02
      1.197  0.0000E+00  0.3600E+02
      1.206  0.0000E+00  0.3600E+02
      1.216  0.0000E+00  0.3600E+02
      1.225  0.0000E+00  0.3600E+02
      1.234  0.0000E+00  0.3600E+02
      1.244  0.0000E+00  0.3600E+02
      1.253  0.0000E+00  0.3600E+02
      1.263  0.0000E+00  0.3600E+02
      1.272  0.0000E+00  0.3600E+02
      1.281  0.0000E+00  0.3600E+02
      1.291  0.0000E+00  0.3600E+02
      1.300  0.0000E+00  0.3600E+02
      1.309  0.0000E+00  0.3600E+02
      1.319  0.0000E+00  0.3600E+02
      1.328  0.0000E+00  0.3600E+02
      1.337  0.0000E+00  0.3600E+02
      1.347  0.0000E+00  0.3600E+02
      1.356  0.0000E+00  0.3600E+02
      1.366  0.0000E+00  0.3600E+02
      1.375  0.0000E+00  0.3600E+02
      1.384  0.0000E+00  0.3600E+02
      1.394  0.0000E+00  0.3600E+02
      1.403  0.0000E+00  0.3600E+02
      1.412  0.0000E+00  0.3600E+02
      1.422  0.0000E+00  0.3600E+02
      1.431  0.0000E+00  0.3600E+02
      1.441  0.0000E+00  0.3600E+02
      1.450  0.0000E+00  0.3600E+02
      1.459  0.0000E+00  0.3600E+02
      1.469  0.0000E+00  0.3600E+02
      1.478  0.0000E+00  0.3600E+02
      1.487  0.0000E+00  0.3600E+02
      1.497  0.0000E+00  0.3600E+02
      1.506  0.0000E+00  0.3600E+02
      1.516  0.0000E+00  0.3600E+02
      1.525  0.0000E+00  0.3600E+02
      1.534  0.0000E+00  0.3600E+02
      1.544  0.0000E+00  0.3600E+02
      1.553  0.0000E+00  0.3600E+02
      1.562  0.0000E+00  0.3600E+02
      1.572  0.0000E+00  0.3600E+02
      1.581  0.0000E+00  0.3600E+02
      1.591  0.0000E+00  0.3600E+02
      1.600  0.0000E+00  0.3600E+02
      1.609  0.0000E+00  0.3600E+02
      1.619  0.0000E+00  0.3600E+02
      1.628  0.0000E+00  0.3600E+02
      1.638  0.0000E+00  0.3600E+02
      1.647  0.0000E+00  0.3600E+02
      1.656  0.0000E+00  0.3600E+02
      1.666  0.0000E+00  0.3600E+02
      1.675  0.0000E+00  0.3600E+02
      1.684  0.0000E+00  0.3600E+02
      1.694  0.0000E+00  0.3600E+02
      1.703  0.0000E+00  0.3600E+02
      1.712  0.0000E+00  0.3600E+02
      1.722  0.0000E+00  0.3600E+02
      1.731  0.0000E+00  0.3600E+02
      1.741  0.0000E+00  0.3600E+02
      1.750  0.0000E+00  0.3600E+02
      1.759  0.0000E+00  0.3600E+02
      1.769  0.0000E+00  0.3600E+02
      1.778  0.0000E+00  0.3600E+02
      1.787  0.0000E+00  0.3600E+02
      1.797  0.0000E+00  0.3600E+02
      1.806  0.0000E+00  0.3600E+02
      1.816  0.0000E+00  0.3600E+02
      1.825  0.0000E+00  0.3600E+02
      1.834  0.0000E+00  0.3600E+02
      1.844  0.0000E+00  0.3600E+02
      1.853  0.0000E+00  0.3600E+02
      1.862  0.0000E+00  0.3600E+02
      1.872  0.0000E+00  0.3600E+02
      1.881  0.0000E+00  0.3600E+02
      1.891  0.0000E+00  0.3600E+02
      1.900  0.0000E+00  0.3600E+02
      1.909  0.0000E+00  0.3600E+02
      1.919  0.0000E+00  0.3600E+02
      1.928  0.0000E+00  0.3600E+02
      1.938  0.6735E-05  0.3600E+02
      1.947  0.3339E-04  0.3600E+02
      1.956  0.8030E-04  0.3600E+02
      1.966  0.1475E-03  0.3600E+02
      1.975  0.2349E-03  0.3600E+02
      1.984  0.3426E-03  0.3600E+02
      1.994  0.4706E-03  0.3600E+02
      2.003  0.6188E-03  0.3600E+02
      2.013  0.7872E-03  0.3600E+02
      2.022  0.9760E-03  0.3600E+02
      2.031  0.1185E-02  0.3600E+02
      2.041  0.1414E-02  0.3600E+02
      2.050  0.1664E-02  0.3600E+02
      2.059  0.1934E-02  0.3600E+02
      2.069  0.2224E-02  0.3600E+02
      2.078  0.2534E-02  0.3600E+02
      2.087  0.2864E-02  0.3600E+02
      2.097  0.3215E-02  0.3600E+02
      2.106  0.3586E-02  0.3600E+02
      2.116  0.3978E-02  0.3600E+02
      2.125  0.4389E-02  0.3600E+02
      2.134  0.4821E-02  0.3600E+02
      2.144  0.5273E-02  0.3600E+02
      2.153  0.5746E-02  0.3600E+02
      2.162  0.6238E-02  0.3600E+02
      2.172  0.6751E-02  0.3600E+02
      2.181  0.7284E-02  0.3600E+02
      2.191  0.7838E-02  0.3600E+02
      2.200  0.8411E-02  0.3600E+02
      2.209  0.9005E-02  0.3600E+02
      2.219  0.9620E-02  0.3600E+02
      2.228  0.1025E-01  0.3600E+02
      2.237  0.1091E-01  0.3600E+02
      2.247  0.1158E-01  0.3600E+02
      2.256  0.1228E-01  0.3600E+02
      2.266  0.1299E-01  0.3600E+02
      2.275  0.1373E-01  0.3600E+02
      2.284  0.1449E-01  0.3600E+02
      2.294  0.1526E-01  0.3600E+02
      2.303  0.1606E-01  0.3600E+02
      2.312  0.1688E-01  0.3600E+02
      2.322  0.1771E-01  0.3600E+02
      2.331  0.1857E-01  0.3600E+02
      2.341  0.1945E-01  0.3600E+02
      2.350  0.2035E-01  0.3600E+02
      2.359  0.2126E-01  0.3600E+02
      2.369  0.2220E-01  0.3600E+02
      2.378  0.2316E-01  0.3600E+02
      2.387  0.2414E-01  0.3600E+02
      2.397  0.2514E-01  0.3600E+02
      2.406  0.2616E-01  0.3600E+02
      2.416  0.2720E-01  0.3600E+02
      2.425  0.2826E-01  0.3600E+02
      2.434  0.2934E-01  0.3600E+02
      2.444  0.3044E-01  0.3601E+02
      2.453  0.3156E-01  0.3601E+02
      2.462  0.3270E-01  0.3601E+02
      2.472  0.3386E-01  0.3601E+02
      2.481  0.3504E-01  0.3601E+02
      2.491  0.3625E-01  0.3601E+02
      2.500  0.3747E-01  0.3601E+02
      2.509  0.3871E-01  0.3601E+02
      2.519  0.3997E-01  0.3601E+02
      2.528  0.4125E-01  0.3601E+02
      2.537  0.4256E-01  0.3601E+02
      2.547  0.4388E-01  0.3601E+02
      2.556  0.4522E-01  0.3601E+02
      2.566  0.4659E-01  0.3601E+02
      2.575  0.4797E-01  0.3601E+02
      2.584  0.4938E-01  0.3601E+02
      2.594  0.5080E-01  0.3601E+02
      2.603  0.5225E-01  0.3601E+02
      2.612  0.5371E-01  0.3601E+02
      2.622  0.5520E-01  0.3601E+02
      2.631  0.5670E-01  0.3601E+02
      2.641  0.5823E-01  0.3601E+02
      2.650  0.5978E-01  0.3601E+02
      2.659  0.6134E-01  0.3601E+02
      2.669  0.6293E-01  0.3602E+02
      2.678  0.6454E-01  0.3602E+02
      2.688  0.6616E-01  0.3602E+02
      2.697  0.6781E-01  0.3602E+02
      2.706  0.6948E-01  0.3602E+02
      2.716  0.7117E-01  0.3602E+02
      2.725  0.7287E-01  0.3602E+02
      2.734  0.7460E-01  0.3602E+02