 vasp.5.3.5 31Mar14 (build Jan 22 2015 17:36:29) complex                        
  
 executed on             LinuxIFC date 2016.08.27  23:48:34
 running on   16 total cores
 distrk:  each k-point on   16 cores,    1 groups
 distr:  one band on NCORES_PER_BAND=   4 cores,    4 groups


--------------------------------------------------------------------------------------------------------


 INCAR:
 POTCAR:    PAW_PBE Cd 06Sep2000                  
 POTCAR:    PAW_PBE In_d 06Sep2000                
 POTCAR:    PAW_PBE S 06Sep2000                   
 POTCAR:    PAW_PBE Cd 06Sep2000                  
   VRHFIN =Cd : s2 d10                                                          
   LEXCH  = PE                                                                  
   EATOM  =  1293.1815 eV,   95.0462 Ry                                         
                                                                                
   TITEL  = PAW_PBE Cd 06Sep2000                                                
   LULTRA =        F    use ultrasoft PP ?                                      
   IUNSCR =        1    unscreen: 0-lin 1-nonlin 2-no                           
   RPACOR =    2.000    partial core radius                                     
   POMASS =  112.411; ZVAL   =   12.000    mass and valenz                      
   RCORE  =    2.300    outmost cutoff radius                                   
   RWIGS  =    2.980; RWIGS  =    1.577    wigner-seitz radius (au A)           
   ENMAX  =  274.336; ENMIN  =  205.752 eV                                      
   RCLOC  =    2.054    cutoff for local pot                                    
   LCOR   =        T    correct aug charges                                     
   LPAW   =        T    paw PP                                                  
   EAUG   =  456.106                                                            
   DEXC   =    0.000                                                            
   RMAX   =    2.358    core radius for proj-oper                               
   RAUG   =    1.300    factor for augmentation sphere                          
   RDEP   =    2.450    radius for radial grids                                 
   RDEPT  =    1.955    core radius for aug-charge                              
                                                                                
   Atomic configuration                                                         
   12 entries                                                                   
     n  l   j            E        occ.                                          
     1  0  0.50    -26519.7817   2.0000                                         
     2  0  0.50     -3936.9612   2.0000                                         
     2  1  1.50     -3532.2230   6.0000                                         
     3  0  0.50      -733.7908   2.0000                                         
     3  1  1.50      -601.0792   6.0000                                         
     3  2  2.50      -393.5307  10.0000                                         
     4  0  0.50      -105.8977   2.0000                                         
     4  1  1.50       -66.9488   6.0000                                         
     4  2  2.50       -11.7331  10.0000                                         
     5  0  0.50        -5.6592   2.0000                                         
     5  1  0.50        -1.3606   0.0000                                         
     4  3  2.50        -1.3606   0.0000                                         
   Description                                                                  
     l       E           TYP  RCUT    TYP  RCUT                                 
     2    -11.7331479     23  2.300                                             
     2    -13.0937305     23  2.300                                             
     0     -5.6591502     23  2.300                                             
     0     -1.5561433     23  2.300                                             
     1     -2.7211652     23  2.300                                             
     1      8.3548275     23  2.300                                             
  local pseudopotential read in
  partial core-charges read in
  partial kinetic energy density read in
  atomic valenz-charges read in
  non local Contribution for L=           2  read in
    real space projection operators read in
  non local Contribution for L=           2  read in
    real space projection operators read in
  non local Contribution for L=           0  read in
    real space projection operators read in
  non local Contribution for L=           0  read in
    real space projection operators read in
  non local Contribution for L=           1  read in
    real space projection operators read in
  non local Contribution for L=           1  read in
    real space projection operators read in
    PAW grid and wavefunctions read in
 
   number of l-projection  operators is LMAX  =           6
   number of lm-projection operators is LMMAX =          18
 
 POTCAR:    PAW_PBE In_d 06Sep2000                
   VRHFIN =In: s2p1                                                             
   LEXCH  = PE                                                                  
   EATOM  =  1576.8302 eV,  115.8937 Ry                                         
                                                                                
   TITEL  = PAW_PBE In_d 06Sep2000                                              
   LULTRA =        F    use ultrasoft PP ?                                      
   IUNSCR =        1    unscreen: 0-lin 1-nonlin 2-no                           
   RPACOR =    2.200    partial core radius                                     
   POMASS =  114.820; ZVAL   =   13.000    mass and valenz                      
   RCORE  =    2.500    outmost cutoff radius                                   
   RWIGS  =    3.170; RWIGS  =    1.677    wigner-seitz radius (au A)           
   ENMAX  =  239.211; ENMIN  =  179.409 eV                                      
   ICORE  =        3    local potential                                         
   LCOR   =        T    correct aug charges                                     
   LPAW   =        T    paw PP                                                  
   EAUG   =  449.704                                                            
   DEXC   =    0.000                                                            
   RMAX   =    2.552    core radius for proj-oper                               
   RAUG   =    1.300    factor for augmentation sphere                          
   RDEP   =    2.630    radius for radial grids                                 
   RDEPT  =    2.033    core radius for aug-charge                              
                                                                                
   Atomic configuration                                                         
   12 entries                                                                   
     n  l   j            E        occ.                                          
     1  0  0.50    -27747.9169   2.0000                                         
     2  0  0.50     -4154.4438   2.0000                                         
     2  1  1.50     -3728.4305   6.0000                                         
     3  0  0.50      -788.3680   2.0000                                         
     3  1  1.50      -648.9215   6.0000                                         
     3  2  2.50      -432.5893  10.0000                                         
     4  0  0.50      -119.6363   2.0000                                         
     4  1  1.50       -78.1086   6.0000                                         
     4  2  2.50       -18.6227  10.0000                                         
     5  0  0.50        -8.2107   2.0000                                         
     5  1  0.50        -2.5185   1.0000                                         
     4  3  2.50        -2.7212   0.0000                                         
   Description                                                                  
     l       E           TYP  RCUT    TYP  RCUT                                 
     2    -18.6226981     23  2.500                                             
     2     -1.3605826     23  2.500                                             
     0     -8.2107305     23  2.500                                             
     0     -6.1485975     23  2.500                                             
     1     -2.5184867     23  2.500                                             
     1      3.2427302     23  2.500                                             
     3     -1.3605826      7  2.500                                             
  local pseudopotential read in
  partial core-charges read in
  partial kinetic energy density read in
  atomic valenz-charges read in
  non local Contribution for L=           2  read in
    real space projection operators read in
  non local Contribution for L=           2  read in
    real space projection operators read in
  non local Contribution for L=           0  read in
    real space projection operators read in
  non local Contribution for L=           0  read in
    real space projection operators read in
  non local Contribution for L=           1  read in
    real space projection operators read in
  non local Contribution for L=           1  read in
    real space projection operators read in
    PAW grid and wavefunctions read in
 
   number of l-projection  operators is LMAX  =           6
   number of lm-projection operators is LMMAX =          18
 
 POTCAR:    PAW_PBE S 06Sep2000                   
   VRHFIN =S : s2p4                                                             
   LEXCH  = PE                                                                  
   EATOM  =   276.8230 eV,   20.3459 Ry                                         
                                                                                
   TITEL  = PAW_PBE S 06Sep2000                                                 
   LULTRA =        F    use ultrasoft PP ?                                      
   IUNSCR =        1    unscreen: 0-lin 1-nonlin 2-no                           
   RPACOR =    1.500    partial core radius                                     
   POMASS =   32.066; ZVAL   =    6.000    mass and valenz                      
   RCORE  =    1.900    outmost cutoff radius                                   
   RWIGS  =    2.200; RWIGS  =    1.164    wigner-seitz radius (au A)           
   ENMAX  =  258.689; ENMIN  =  194.016 eV                                      
   ICORE  =        2    local potential                                         
   LCOR   =        T    correct aug charges                                     
   LPAW   =        T    paw PP                                                  
   EAUG   =  335.092                                                            
   DEXC   =    0.000                                                            
   RMAX   =    1.942    core radius for proj-oper                               
   RAUG   =    1.300    factor for augmentation sphere                          
   RDEP   =    1.954    radius for radial grids                                 
   RDEPT  =    1.744    core radius for aug-charge                              
                                                                                
   Atomic configuration                                                         
    6 entries                                                                   
     n  l   j            E        occ.                                          
     1  0  0.50     -2405.8406   2.0000                                         
     2  0  0.50      -211.7007   2.0000                                         
     2  1  1.50      -156.4958   6.0000                                         
     3  0  0.50       -17.2562   2.0000                                         
     3  1  0.50        -7.0085   4.0000                                         
     3  2  1.50        -6.8029   0.0000                                         
   Description                                                                  
     l       E           TYP  RCUT    TYP  RCUT                                 
     0    -17.2561641     23  1.900                                             
     0    -15.8743224     23  1.900                                             
     1     -7.0085400     23  1.900                                             
     1     -2.7779785     23  1.900                                             
     2     -6.8029130     23  1.900                                             
  local pseudopotential read in
  partial core-charges read in
  partial kinetic energy density read in
  atomic valenz-charges read in
  non local Contribution for L=           0  read in
    real space projection operators read in
  non local Contribution for L=           0  read in
    real space projection operators read in
  non local Contribution for L=           1  read in
    real space projection operators read in
  non local Contribution for L=           1  read in
    real space projection operators read in
    PAW grid and wavefunctions read in
 
   number of l-projection  operators is LMAX  =           4
   number of lm-projection operators is LMMAX =           8
 

 ----------------------------------------------------------------------------- 
|                                                                             |
|  ADVICE TO THIS USER RUNNING 'VASP/VAMP'   (HEAR YOUR MASTER'S VOICE ...):  |
|                                                                             |
|      You have a (more or less) 'large supercell' and for larger cells       |
|      it might be more efficient to use real space projection opertators     |
|      So try LREAL= Auto  in the INCAR   file.                               |
|      Mind: At the moment your POTCAR file does not contain real space       |
|       projectors, and has to be modified,  BUT if you                       |
|      want to do an extremely  accurate calculation you might also keep the  |
|      reciprocal projection scheme          (i.e. LREAL=.FALSE.)             |
|                                                                             |
 ----------------------------------------------------------------------------- 

  PAW_PBE Cd 06Sep2000                  :
 energy of atom  1       EATOM=-1293.1815
 kinetic energy error for atom=    0.0041 (will be added to EATOM!!)
  PAW_PBE In_d 06Sep2000                :
 energy of atom  2       EATOM=-1576.8302
 kinetic energy error for atom=    0.0011 (will be added to EATOM!!)
  PAW_PBE S 06Sep2000                   :
 energy of atom  3       EATOM= -276.8230
 kinetic energy error for atom=    0.0009 (will be added to EATOM!!)
 
 
 POSCAR: Cd In2 S4                               
  positions in direct lattice
  velocities in cartesian coordinates
 exchange correlation table for  LEXCH =        8
   RHO(1)=    0.500       N(1)  =     2000
   RHO(2)=  100.500       N(2)  =     4000
 


--------------------------------------------------------------------------------------------------------


 ion  position               nearest neighbor table
   1  0.999  0.997  0.001-  53 2.55  47 2.56  31 2.56  43 2.59
   2  0.999  0.499  0.503-  44 2.55  35 2.56  54 2.57  30 2.59
   3  0.497  0.499  0.001-  32 2.55  57 2.56  36 2.57  46 2.59
   4  0.522  0.026  0.478-  34 2.39  33 2.67  52 2.71  45 2.71  25 2.82
   5  0.751  0.251  0.746-  50 2.55  39 2.56  49 2.56  27 2.60
   6  0.254  0.251  0.249-  42 2.55  55 2.56  26 2.56  48 2.60
   7  0.227  0.729  0.773-  37 2.39  40 2.68  28 2.69  51 2.71  25 2.82
   8  0.751  0.753  0.249-  29 2.55  38 2.56  56 2.56  41 2.60
   9  0.628  0.622  0.625-  49 2.62  54 2.62  46 2.63  41 2.63  51 2.73  45 2.73  22 3.82  18 3.83
                            19 3.90  17 3.90  25 3.92  20 3.94  23 3.94
  10  0.375  0.874  0.125-  40 2.64  52 2.64  36 2.66  38 2.66  47 2.66  55 2.66  15 3.90  20 3.90
                            14 3.90  23 3.90  21 3.94  16 3.96
  11  0.885  0.128  0.372-  48 2.61  34 2.63  44 2.65  53 2.65  39 2.67  56 2.67  24 3.82  15 3.82
                            13 3.85  19 3.96  22 4.00  16 4.00
  12  0.122  0.365  0.878-  43 2.62  37 2.63  50 2.65  42 2.65  35 2.66  57 2.66  24 3.83  14 3.83
                            13 3.85  17 3.94  21 3.99  18 4.00
  13  0.875  0.375  0.125-  29 2.64  53 2.64  44 2.64  50 2.64  42 2.64  32 2.64  21 3.85  12 3.85
                            18 3.85  22 3.85  11 3.85  16 3.85
  14  0.375  0.127  0.878-  55 2.62  57 2.62  43 2.63  27 2.63  40 2.72  33 2.73  16 3.82  12 3.83
                            17 3.90  10 3.90  23 3.94  24 3.94  25 3.96
  15  0.122  0.875  0.372-  56 2.62  47 2.62  30 2.63  48 2.63  28 2.73  52 2.73  11 3.82  21 3.83
                            10 3.90  19 3.90  24 3.94  25 3.94  20 3.94
  16  0.628  0.128  0.115-  27 2.61  34 2.63  32 2.65  53 2.65  55 2.67  38 2.67  14 3.82  23 3.83
                            13 3.85  10 3.96  22 4.00  11 4.00
  17  0.375  0.374  0.625-  33 2.63  51 2.64  57 2.66  35 2.66  26 2.66  49 2.66  14 3.90  24 3.90
                            20 3.90   9 3.90  12 3.94  22 3.96
  18  0.866  0.622  0.878-  46 2.62  37 2.63  29 2.65  50 2.65  31 2.66  54 2.66   9 3.83  23 3.83
                            13 3.85  19 3.94  12 4.00  21 4.00
  19  0.875  0.874  0.625-  28 2.64  45 2.64  54 2.66  56 2.66  39 2.66  31 2.66  24 3.90  23 3.90
                             9 3.90  15 3.90  18 3.94  11 3.96
  20  0.375  0.622  0.372-  26 2.62  36 2.62  30 2.63  41 2.63  51 2.73  52 2.73  22 3.82  21 3.83
                            10 3.90  17 3.90  25 3.92   9 3.94  15 3.94
  21  0.122  0.622  0.134-  30 2.62  37 2.63  42 2.65  29 2.65  47 2.66  36 2.66  20 3.83  15 3.83
                            13 3.85  10 3.94  12 3.99  18 4.00
  22  0.628  0.385  0.372-  41 2.61  34 2.63  44 2.65  32 2.65  26 2.67  49 2.67  20 3.82   9 3.82
                            13 3.85  17 3.96  11 4.00  16 4.00
  23  0.627  0.875  0.878-  38 2.62  31 2.62  46 2.63  27 2.63  40 2.73  45 2.73  16 3.83  18 3.83
                            19 3.90  10 3.90  14 3.94  25 3.94   9 3.94
  24  0.122  0.127  0.625-  39 2.62  35 2.62  43 2.63  48 2.64  28 2.72  33 2.73  11 3.82  12 3.83
                            17 3.90  19 3.90  15 3.94  14 3.94  25 3.96
  25  0.376  0.873  0.624-   7 2.82   4 2.82  51 2.86  45 2.86  52 2.86  40 2.89  28 2.89  33 2.90
                             9 3.92  20 3.92  23 3.94  15 3.94  14 3.96  24 3.96
  26  0.387  0.385  0.385-   6 2.56  20 2.62  17 2.66  22 2.67
  27  0.613  0.113  0.879-   5 2.60  16 2.61  23 2.63  14 2.63
  28  0.114  0.880  0.620-  19 2.64   7 2.69  24 2.72  15 2.73  25 2.89
  29  0.882  0.614  0.118-   8 2.55  13 2.64  21 2.65  18 2.65
  30  0.137  0.636  0.371-   2 2.59  21 2.62  20 2.63  15 2.63
  31  0.865  0.863  0.866-   1 2.56  23 2.62  18 2.66  19 2.66
  32  0.636  0.368  0.132-   3 2.55  13 2.64  16 2.65  22 2.65
  33  0.369  0.136  0.631-  17 2.63   4 2.67  24 2.73  14 2.73  25 2.90
  34  0.648  0.148  0.352-   4 2.39  11 2.63  16 2.63  22 2.63
  35  0.134  0.364  0.637-   2 2.56  24 2.62  17 2.66  12 2.66
  36  0.363  0.634  0.135-   3 2.57  20 2.62  10 2.66  21 2.66
  37  0.102  0.602  0.898-   7 2.39  18 2.63  21 2.63  12 2.63
  38  0.616  0.887  0.115-   8 2.56  23 2.62  10 2.66  16 2.67
  39  0.885  0.115  0.613-   5 2.56  24 2.62  19 2.66  11 2.67
  40  0.380  0.880  0.886-  10 2.64   7 2.68  14 2.72  23 2.73  25 2.89
  41  0.614  0.621  0.386-   8 2.60  22 2.61  20 2.63   9 2.63
  42  0.115  0.382  0.118-   6 2.55  13 2.64  21 2.65  12 2.65
  43  0.137  0.129  0.863-   1 2.59  12 2.62  14 2.63  24 2.63
  44  0.868  0.368  0.364-   2 2.55  13 2.64  22 2.65  11 2.65
  45  0.636  0.870  0.630-  19 2.64   4 2.71  23 2.73   9 2.73  25 2.86
  46  0.629  0.636  0.863-   3 2.59  18 2.62   9 2.63  23 2.63
  47  0.134  0.863  0.135-   1 2.56  15 2.62  21 2.66  10 2.66
  48  0.121  0.113  0.387-   6 2.60  11 2.61  15 2.63  24 2.64
  49  0.615  0.385  0.613-   5 2.56   9 2.62  17 2.66  22 2.67
  50  0.882  0.382  0.885-   5 2.55  13 2.64  18 2.65  12 2.65
  51  0.380  0.613  0.620-  17 2.64   7 2.71   9 2.73  20 2.73  25 2.86
  52  0.370  0.870  0.364-  10 2.64   4 2.71  15 2.73  20 2.73  25 2.86
  53  0.868  0.136  0.132-   1 2.55  13 2.64  11 2.65  16 2.65
  54  0.865  0.634  0.637-   2 2.57   9 2.62  19 2.66  18 2.66
  55  0.387  0.115  0.115-   6 2.56  14 2.62  10 2.66  16 2.67
  56  0.885  0.887  0.384-   8 2.56  15 2.62  19 2.66  11 2.67
  57  0.363  0.364  0.866-   3 2.56  14 2.62  17 2.66  12 2.66
 
  LATTYP: Found a simple cubic cell.
 ALAT       =    11.0223536917
  
  Lattice vectors:
  
 A1 = (  11.0223536917,   0.0000000000,   0.0000000000)
 A2 = (   0.0000000000,  11.0223536917,   0.0000000000)
 A3 = (   0.0000000000,   0.0000000000,  11.0223536917)


Analysis of symmetry for initial positions (statically):
=====================================================================
 Subroutine PRICEL returns:
 Original cell was already a primitive cell.
 

 Routine SETGRP: Setting up the symmetry group for a 
 simple cubic supercell.


 Subroutine GETGRP returns: Found  1 space group operations
 (whereof  1 operations were pure point group operations)
 out of a pool of 48 trial point group operations.


The static configuration has the point symmetry C_1 .


Analysis of symmetry for dynamics (positions and initial velocities):
=====================================================================
 Subroutine PRICEL returns:
 Original cell was already a primitive cell.
 

 Routine SETGRP: Setting up the symmetry group for a 
 simple cubic supercell.


 Subroutine GETGRP returns: Found  1 space group operations
 (whereof  1 operations were pure point group operations)
 out of a pool of 48 trial point group operations.


The dynamic configuration has the point symmetry C_1 .
 
 
 KPOINTS: Automatic mesh                          

Automatic generation of k-mesh.
Space group operators:
 irot       det(A)        alpha          n_x          n_y          n_z        tau_x        tau_y        tau_z
    1     1.000000     0.000001     1.000000     0.000000     0.000000     0.000000     0.000000     0.000000
 
 Subroutine IBZKPT returns following result:
 ===========================================
 
 Found     14 irreducible k-points:
 
 Following reciprocal coordinates:
            Coordinates               Weight
  0.000000  0.000000  0.000000      1.000000
  0.333333  0.000000  0.000000      2.000000
  0.000000  0.333333  0.000000      2.000000
  0.333333  0.333333  0.000000      2.000000
 -0.333333  0.333333  0.000000      2.000000
  0.000000  0.000000  0.333333      2.000000
  0.333333  0.000000  0.333333      2.000000
 -0.333333  0.000000  0.333333      2.000000
  0.000000  0.333333  0.333333      2.000000
  0.333333  0.333333  0.333333      2.000000
 -0.333333  0.333333  0.333333      2.000000
  0.000000 -0.333333  0.333333      2.000000
  0.333333 -0.333333  0.333333      2.000000
 -0.333333 -0.333333  0.333333      2.000000
 
 Following cartesian coordinates:
            Coordinates               Weight
  0.000000  0.000000  0.000000      1.000000
  0.030242  0.000000  0.000000      2.000000
  0.000000  0.030242  0.000000      2.000000
  0.030242  0.030242  0.000000      2.000000
 -0.030242  0.030242  0.000000      2.000000
  0.000000  0.000000  0.030242      2.000000
  0.030242  0.000000  0.030242      2.000000
 -0.030242  0.000000  0.030242      2.000000
  0.000000  0.030242  0.030242      2.000000
  0.030242  0.030242  0.030242      2.000000
 -0.030242  0.030242  0.030242      2.000000
  0.000000 -0.030242  0.030242      2.000000
  0.030242 -0.030242  0.030242      2.000000
 -0.030242 -0.030242  0.030242      2.000000
 
 TETIRR: Found     78 inequivalent tetrahedra from      162


--------------------------------------------------------------------------------------------------------




 Dimension of arrays:
   k-points           NKPTS =     14   k-points in BZ     NKDIM =     14   number of bands    NBANDS=    304
   number of dos      NEDOS =   1601   number of ions     NIONS =     57
   non local maximal  LDIM  =      6   non local SUM 2l+1 LMDIM =     18
   total plane-waves  NPLWV = 729000
   max r-space proj   IRMAX =      1   max aug-charges    IRDMAX=  23711
   dimension x,y,z NGX =    90 NGY =   90 NGZ =   90
   dimension x,y,z NGXF=   180 NGYF=  180 NGZF=  180
   support grid    NGXF=   180 NGYF=  180 NGZF=  180
   ions per type =               8  17  32
 NGX,Y,Z   is equivalent  to a cutoff of  13.57, 13.57, 13.57 a.u.
 NGXF,Y,Z  is equivalent  to a cutoff of  27.15, 27.15, 27.15 a.u.


 I would recommend the setting:
   dimension x,y,z NGX =    88 NGY =   88 NGZ =   88
 SYSTEM =  CdIn2S4                                 
 POSCAR =  Cd In2 S4                               

 Startparameter for this run:
   NWRITE =      2    write-flag & timer
   PREC   = accura    normal or accurate (medium, high low for compatibility)
   ISTART =      0    job   : 0-new  1-cont  2-samecut
   ICHARG =      2    charge: 1-file 2-atom 10-const
   ISPIN  =      1    spin polarized calculation?
   LNONCOLLINEAR =      F non collinear calculations
   LSORBIT =      F    spin-orbit coupling
   INIWAV =      1    electr: 0-lowe 1-rand  2-diag
   LASPH  =      F    aspherical Exc in radial PAW
   METAGGA=      F    non-selfconsistent MetaGGA calc.

 Electronic Relaxation 1
   ENCUT  =  600.0 eV  44.10 Ry    6.64 a.u.  22.01 22.01 22.01*2*pi/ulx,y,z
   ENINI  =  600.0     initial cutoff
   ENAUG  =  456.1 eV  augmentation charge cutoff
   NELM   =     60;   NELMIN=  2; NELMDL= -5     # of ELM steps 
   EDIFF  = 0.1E-03   stopping-criterion for ELM
   LREAL  =      F    real-space projection
   NLSPLINE    = F    spline interpolate recip. space projectors
   LCOMPAT=      F    compatible to vasp.4.4
   GGA_COMPAT  = T    GGA compatible to vasp.4.4-vasp.4.6
   LMAXPAW     = -100 max onsite density
   LMAXMIX     =    2 max onsite mixed and CHGCAR
   VOSKOWN=      0    Vosko Wilk Nusair interpolation
   ROPT   =    0.00000   0.00000   0.00000
 Ionic relaxation
   EDIFFG = 0.1E-02   stopping-criterion for IOM
   NSW    =      0    number of steps for IOM
   NBLOCK =      1;   KBLOCK =      1    inner block; outer block 
   IBRION =     -1    ionic relax: 0-MD 1-quasi-New 2-CG
   NFREE  =      1    steps in history (QN), initial steepest desc. (CG)
   ISIF   =      0    stress and relaxation
   IWAVPR =     10    prediction:  0-non 1-charg 2-wave 3-comb
   ISYM   =      2    0-nonsym 1-usesym 2-fastsym
   LCORR  =      T    Harris-Foulkes like correction to forces

   POTIM  = 0.5000    time-step for ionic-motion
   TEIN   =    0.0    initial temperature
   TEBEG  =    0.0;   TEEND  =   0.0 temperature during run
   SMASS  =  -3.00    Nose mass-parameter (am)
   estimated Nose-frequenzy (Omega)   =  0.10E-29 period in steps =****** mass=  -0.278E-26a.u.
   SCALEE = 1.0000    scale energy and forces
   NPACO  =    256;   APACO  = 16.0  distance and # of slots for P.C.
   PSTRESS=    0.0 pullay stress

  Mass of Ions in am
   POMASS = 112.41114.82 32.07
  Ionic Valenz
   ZVAL   =  12.00 13.00  6.00
  Atomic Wigner-Seitz radii
   RWIGS  =  -1.00 -1.00 -1.00
  virtual crystal weights 
   VCA    =   1.00  1.00  1.00
   NELECT =     508.0000    total number of electrons
   NUPDOWN=      -1.0000    fix difference up-down

 DOS related values:
   EMIN   =  -5.00;   EMAX   = 10.00  energy-range for DOS
   EFERMI =   0.00
   ISMEAR =    -4;   SIGMA  =   0.20  broadening in eV -4-tet -1-fermi 0-gaus

 Electronic relaxation 2 (details)
   IALGO  =     38    algorithm
   LDIAG  =      T    sub-space diagonalisation (order eigenvalues)
   LSUBROT=      F    optimize rotation matrix (better conditioning)
   TURBO    =      0    0=normal 1=particle mesh
   IRESTART =      0    0=no restart 2=restart with 2 vectors
   NREBOOT  =      0    no. of reboots
   NMIN     =      0    reboot dimension
   EREF     =   0.00    reference energy to select bands
   IMIX   =      4    mixing-type and parameters
     AMIX     =   0.40;   BMIX     =  1.00
     AMIX_MAG =   1.60;   BMIX_MAG =  1.00
     AMIN     =   0.10
     WC   =   100.;   INIMIX=   1;  MIXPRE=   1;  MAXMIX= -45

 Intra band minimization:
   WEIMIN = 0.0000     energy-eigenvalue tresh-hold
   EBREAK =  0.82E-07  absolut break condition
   DEPER  =   0.30     relativ break condition  

   TIME   =   0.40     timestep for ELM

  volume/ion in A,a.u.               =      23.49       158.54
  Fermi-wavevector in a.u.,A,eV,Ry     =   1.185100  2.239515 19.108871  1.404462
  Thomas-Fermi vector in A             =   2.321301
 
 Write flags
   LWAVE  =      T    write WAVECAR
   LCHARG =      T    write CHGCAR
   LVTOT  =      F    write LOCPOT, total local potential
   LVHAR  =      F    write LOCPOT, Hartree potential only
   LELF   =      F    write electronic localiz. function (ELF)
   LORBIT =     11    0 simple, 1 ext, 2 COOP (PROOUT)


 Dipole corrections
   LMONO  =      F    monopole corrections only (constant potential shift)
   LDIPOL =      F    correct potential (dipole corrections)
   IDIPOL =      0    1-x, 2-y, 3-z, 4-all directions 
   EPSILON=  1.0000000 bulk dielectric constant

 Exchange correlation treatment:
   GGA     =    --    GGA type
   LEXCH   =     8    internal setting for exchange type
   VOSKOWN=      0    Vosko Wilk Nusair interpolation
   LHFCALC =     F    Hartree Fock is set to
   LHFONE  =     F    Hartree Fock one center treatment
   AEXX    =    0.0000 exact exchange contribution

 Linear response parameters
   LEPSILON=     F    determine dielectric tensor
   LRPA    =     F    only Hartree local field effects (RPA)
   LNABLA  =     F    use nabla operator in PAW spheres
   LVEL    =     F    velocity operator in full k-point grid
   LINTERFAST=   F  fast interpolation
   KINTER  =     0    interpolate to denser k-point grid
   CSHIFT  =0.1000    complex shift for real part using Kramers Kronig
   OMEGAMAX=  -1.0    maximum frequency
   DEG_THRESHOLD= 0.2000000E-02 threshold for treating states as degnerate
   RTIME   =    0.100 relaxation time in fs

 Orbital magnetization related:
   ORBITALMAG=     F  switch on orbital magnetization
   LCHIMAG   =     F  perturbation theory with respect to B field
   DQ        =  0.001000  dq finite difference perturbation B field



--------------------------------------------------------------------------------------------------------


 Static calculation
 charge density and potential will be updated during run
 non-spin polarized calculation
 Variant of blocked Davidson
 Davidson routine will perform the subspace rotation
 perform sub-space diagonalisation
    after iterative eigenvector-optimisation
 modified Broyden-mixing scheme, WC =      100.0
 initial mixing is a Kerker type mixing with AMIX =  0.4000 and BMIX =      1.0000
 Hartree-type preconditioning will be used
 using additional bands           50
 reciprocal scheme for non local part
 use partial core corrections
 calculate Harris-corrections to forces 
   (improved forces if not selfconsistent)
 use gradient corrections 
 use of overlap-Matrix (Vanderbilt PP)
 Fermi weights with tetrahedron method witout Bloechl corrections


--------------------------------------------------------------------------------------------------------


  energy-cutoff  :      600.00
  volume of cell :     1339.13
      direct lattice vectors                 reciprocal lattice vectors
    11.022353692  0.000000000  0.000000000     0.090724724  0.000000000  0.000000000
     0.000000000 11.022353692  0.000000000     0.000000000  0.090724724  0.000000000
     0.000000000  0.000000000 11.022353692     0.000000000  0.000000000  0.090724724

  length of vectors
    11.022353692 11.022353692 11.022353692     0.090724724  0.090724724  0.090724724


 
 k-points in units of 2pi/SCALE and weight: Automatic mesh                          
   0.00000000  0.00000000  0.00000000       0.037
   0.03024157  0.00000000  0.00000000       0.074
   0.00000000  0.03024157  0.00000000       0.074
   0.03024157  0.03024157  0.00000000       0.074
  -0.03024157  0.03024157  0.00000000       0.074
   0.00000000  0.00000000  0.03024157       0.074
   0.03024157  0.00000000  0.03024157       0.074
  -0.03024157  0.00000000  0.03024157       0.074
   0.00000000  0.03024157  0.03024157       0.074
   0.03024157  0.03024157  0.03024157       0.074
  -0.03024157  0.03024157  0.03024157       0.074
   0.00000000 -0.03024157  0.03024157       0.074
   0.03024157 -0.03024157  0.03024157       0.074
  -0.03024157 -0.03024157  0.03024157       0.074
 
 k-points in reciprocal lattice and weights: Automatic mesh                          
   0.00000000  0.00000000  0.00000000       0.037
   0.33333333  0.00000000  0.00000000       0.074
   0.00000000  0.33333333  0.00000000       0.074
   0.33333333  0.33333333  0.00000000       0.074
  -0.33333333  0.33333333  0.00000000       0.074
   0.00000000  0.00000000  0.33333333       0.074
   0.33333333  0.00000000  0.33333333       0.074
  -0.33333333  0.00000000  0.33333333       0.074
   0.00000000  0.33333333  0.33333333       0.074
   0.33333333  0.33333333  0.33333333       0.074
  -0.33333333  0.33333333  0.33333333       0.074
   0.00000000 -0.33333333  0.33333333       0.074
   0.33333333 -0.33333333  0.33333333       0.074
  -0.33333333 -0.33333333  0.33333333       0.074
 
 position of ions in fractional coordinates (direct lattice) 
   0.99910890  0.99661282  0.00090702
   0.99929290  0.49895057  0.50309393
   0.49691193  0.49897363  0.00067400
   0.52165079  0.02576919  0.47835210
   0.75134050  0.25099285  0.74606797
   0.25393653  0.25100193  0.24865505
   0.22695808  0.72867127  0.77308972
   0.75136279  0.75339559  0.24862480
   0.62757868  0.62176347  0.62502471
   0.37473625  0.87438621  0.12522114
   0.88511043  0.12818370  0.37166451
   0.12187166  0.36536993  0.87812633
   0.87512261  0.37506596  0.12485888
   0.37483677  0.12720404  0.87806185
   0.12212962  0.87472575  0.37244445
   0.62832795  0.12816812  0.11488554
   0.37455874  0.37440141  0.62545070
   0.86558455  0.62169122  0.87795746
   0.87485050  0.87444180  0.62529064
   0.37496539  0.62176085  0.37244782
   0.12203754  0.62162496  0.13444087
   0.62835269  0.38477286  0.37162849
   0.62749324  0.87471512  0.87782374
   0.12194787  0.12720030  0.62516682
   0.37629762  0.87287099  0.62375178
   0.38674643  0.38475274  0.38463828
   0.61347105  0.11315053  0.87891896
   0.11381662  0.88030754  0.61964043
   0.88213905  0.61428423  0.11786088
   0.13674675  0.63638947  0.37103176
   0.86467634  0.86272487  0.86622261
   0.63555688  0.36814746  0.13155012
   0.36931468  0.13571296  0.63068511
   0.64844625  0.14800595  0.35155392
   0.13377206  0.36444653  0.63710787
   0.36315951  0.63363025  0.13535005
   0.10226800  0.60215040  0.89773623
   0.61559545  0.88664059  0.11499389
   0.88496984  0.11534657  0.61317155
   0.38036712  0.88031248  0.88621095
   0.61354762  0.62060378  0.38642863
   0.11469206  0.38173423  0.11812759
   0.13657882  0.12878066  0.86342583
   0.86835351  0.36824556  0.36436609
   0.63571901  0.86950966  0.63048344
   0.62896372  0.63639115  0.86325142
   0.13378075  0.86264621  0.13527180
   0.12107503  0.11315889  0.38651196
   0.61537327  0.38474536  0.61324161
   0.88187805  0.38173366  0.88529631
   0.38029345  0.61348446  0.61981670
   0.36951323  0.86951363  0.36428761
   0.86843065  0.13565610  0.13157289
   0.86466723  0.63365739  0.63686109
   0.38682510  0.11533366  0.11503208
   0.88500342  0.88663808  0.38440824
   0.36289453  0.36445043  0.86623377
 
 position of ions in cartesian coordinates  (Angst):
  11.01253168 10.98501903  0.00999747
  11.01455981  5.49960965  5.54527926
   5.47713905  5.49986381  0.00742903
   5.74981947  0.28403715  5.27256605
   8.28154075  2.76653198  8.22342504
   2.79897821  2.76663204  2.74076395
   2.50161218  8.03167241  8.52126830
   8.28178647  8.30419262  2.74043053
   6.91739419  6.85329685  6.88924341
   4.13047550  9.63779409  1.38023172
   9.75600019  1.41288610  4.09661774
   1.34331259  4.02723663  9.67901901
   9.64591089  4.13410971  1.37623869
   4.13158351  1.40208790  9.67830825
   1.34615591  9.64153656  4.10521450
   6.92565291  1.41271434  1.26630905
   4.12851896  4.12678471  6.89393884
   9.54077901  6.85250047  9.67715761
   9.64291164  9.63840685  6.89217464
   4.13300113  6.85326803  4.10525159
   1.34514091  6.85177018  1.48185484
   6.92592555  4.24110260  4.09622062
   6.91645243  9.64141942  9.67568372
   1.34415251  1.40204664  6.89080983
   4.14768549  9.62109282  6.87521274
   4.26285599  4.24088079  4.23961916
   6.76189491  1.24718515  9.68775563
   1.25452707  9.70306108  6.82989598
   9.72324861  6.77085800  1.29910432
   1.50727109  7.01450979  4.08964331
   9.53076844  9.50925865  9.54781198
   7.00533267  4.05785148  1.44999195
   4.07071699  1.49587627  6.95163434
   7.14740389  1.63137388  3.87495160
   1.47448295  4.01705858  7.02242826
   4.00287256  6.98409674  1.49187617
   1.12723404  6.63711473  9.89516630
   6.78531073  9.77286621  1.26750328
   9.75445054  1.27139065  6.75859371
   4.19254098  9.70311553  9.76813058
   6.76273883  6.84051437  4.25935299
   1.26417648  4.20760970  1.30204405
   1.50542009  1.41946600  9.51698487
   9.57129957  4.05893286  4.01617196
   7.00711975  9.58404296  6.94941148
   6.93266056  7.01452831  9.51506251
   1.47457876  9.50839167  1.49101367
   1.33453175  1.24727728  4.26027154
   6.78286184  4.24079943  6.75936594
   9.72037179  4.20760339  9.75804900
   4.19172894  6.76204272  6.83183894
   4.07290550  9.58408672  4.01530689
   9.57214982  1.49524949  1.45024289
   9.53066799  6.98439583  7.01970819
   4.26372307  1.27124838  1.26792423
   9.75482068  9.77283850  4.23708354
   3.99995184  4.01710157  9.54793504
 


--------------------------------------------------------------------------------------------------------


 k-point  1 :   0.0000 0.0000 0.0000  plane waves:   44473
 k-point  2 :   0.3333 0.0000 0.0000  plane waves:   44660
 k-point  3 :   0.0000 0.3333 0.0000  plane waves:   44660
 k-point  4 :   0.3333 0.3333 0.0000  plane waves:   44717
 k-point  5 :  -0.3333 0.3333 0.0000  plane waves:   44717
 k-point  6 :   0.0000 0.0000 0.3333  plane waves:   44660
 k-point  7 :   0.3333 0.0000 0.3333  plane waves:   44717
 k-point  8 :  -0.3333 0.0000 0.3333  plane waves:   44717
 k-point  9 :   0.0000 0.3333 0.3333  plane waves:   44717
 k-point 10 :   0.3333 0.3333 0.3333  plane waves:   44681
 k-point 11 :  -0.3333 0.3333 0.3333  plane waves:   44681
 k-point 12 :   0.0000-0.3333 0.3333  plane waves:   44717
 k-point 13 :   0.3333-0.3333 0.3333  plane waves:   44681
 k-point 14 :  -0.3333-0.3333 0.3333  plane waves:   44681

 maximum and minimum number of plane-waves per node :     11234    11099

 maximum number of plane-waves:     44717
 maximum index in each direction: 
   IXMAX=   22   IYMAX=   22   IZMAX=   22
   IXMIN=  -22   IYMIN=  -22   IZMIN=  -22

 NGX is ok and might be reduce to  90
 NGY is ok and might be reduce to  90
 NGZ is ok and might be reduce to  90

 parallel 3D FFT for wavefunctions:
    minimum data exchange during FFTs selected (reduces bandwidth)
 parallel 3D FFT for charge:
    minimum data exchange during FFTs selected (reduces bandwidth)


 total amount of memory used by VASP on root node   352987. kBytes
========================================================================

   base      :      30000. kBytes
   nonl-proj :      77896. kBytes
   fftplans  :      18482. kBytes
   grid      :      32575. kBytes
   one-center:        233. kBytes
   wavefun   :     193801. kBytes
 
     INWAV:  cpu time    0.00: real time    0.00
 Broyden mixing: mesh for mixing (old mesh)
   NGX = 45   NGY = 45   NGZ = 45
  (NGX  =180   NGY  =180   NGZ  =180)
  gives a total of  91125 points

 initial charge density was supplied:
 charge density of overlapping atoms calculated
 number of electron     509.0000000 magnetization 
 keeping initial charge density in first step


--------------------------------------------------------------------------------------------------------


 Maximum index for augmentation-charges         2012 (set IRDMAX)


--------------------------------------------------------------------------------------------------------


 First call to EWALD:  gamma=   0.161
 Maximum number of real-space cells 3x 3x 3
 Maximum number of reciprocal cells 3x 3x 3

 FEWALD executed in parallel
    FEWALD:  cpu time    0.00: real time    0.00


----------------------------------------- Iteration    1(   1)  ---------------------------------------


    POTLOK:  cpu time    0.37: real time    0.38
    SETDIJ:  cpu time    0.02: real time    0.03
     EDDAV:  cpu time  123.48: real time  128.62
 BZINTS: Fermi energy: 34.347424;508.000000 electrons
         Band energy:4858.859706;  BLOECHL correction:  0.000000
       DOS:  cpu time    3.36: real time    3.36
    --------------------------------------------
      LOOP:  cpu time  127.22: real time  132.40

 eigenvalue-minimisations  :  8520
 total energy-change (2. order) : 0.6773702E+04  (-0.2292111E+05)
 number of electron     509.0000000 magnetization 
 augmentation part      509.0000000 magnetization 

 Free energy of the ion-electron system (eV)
  ---------------------------------------------------
  alpha Z        PSCENC =      1326.31949012
  Ewald energy   TEWEN  =    -33262.73332511
  -Hartree energ DENC   =    -13835.91318871
  -exchange      EXHF   =         0.00000000
  -V(xc)+E(xc)   XCENC  =      1146.78572226
  PAW double counting   =     40008.96445583   -39478.40375335
  entropy T*S    EENTRO =         0.00000000
  eigenvalues    EBANDS =      4858.85970585
  atomic energy  EATOM  =     46009.82289571
  ---------------------------------------------------
  free energy    TOTEN  =      6773.70200259 eV

  energy without entropy =     6773.70200259  energy(sigma->0) =     6773.70200259


--------------------------------------------------------------------------------------------------------




----------------------------------------- Iteration    1(   2)  ---------------------------------------


     EDDAV:  cpu time  123.34: real time  128.44
 BZINTS: Fermi energy: 13.208081;508.000000 electrons
         Band energy:-712.742848;  BLOECHL correction:  0.000000
       DOS:  cpu time    0.50: real time    0.50
    --------------------------------------------
      LOOP:  cpu time  123.99: real time  129.11

 eigenvalue-minimisations  :  8512
 total energy-change (2. order) :-0.5571603E+04  (-0.5432059E+04)
 number of electron     509.0000000 magnetization 
 augmentation part      509.0000000 magnetization 

 Free energy of the ion-electron system (eV)
  ---------------------------------------------------
  alpha Z        PSCENC =      1326.31949012
  Ewald energy   TEWEN  =    -33262.73332511
  -Hartree energ DENC   =    -13835.91318871
  -exchange      EXHF   =         0.00000000
  -V(xc)+E(xc)   XCENC  =      1146.78572226
  PAW double counting   =     40008.96445583   -39478.40375335
  entropy T*S    EENTRO =         0.00000000
  eigenvalues    EBANDS =      -712.74284801
  atomic energy  EATOM  =     46009.82289571
  ---------------------------------------------------
  free energy    TOTEN  =      1202.09944872 eV

  energy without entropy =     1202.09944872  energy(sigma->0) =     1202.09944872


--------------------------------------------------------------------------------------------------------




----------------------------------------- Iteration    1(   3)  ---------------------------------------


     EDDAV:  cpu time  133.18: real time  138.84
 BZINTS: Fermi energy:  5.790771;508.000000 electrons
         Band energy:***********;  BLOECHL correction:  0.000000
       DOS:  cpu time    0.02: real time    0.02
    --------------------------------------------
      LOOP:  cpu time  133.23: real time  138.92

 eigenvalue-minimisations  :  9296
 total energy-change (2. order) :-0.1260106E+04  (-0.1175183E+04)
 number of electron     509.0000000 magnetization 
 augmentation part      509.0000000 magnetization 

 Free energy of the ion-electron system (eV)
  ---------------------------------------------------
  alpha Z        PSCENC =      1326.31949012
  Ewald energy   TEWEN  =    -33262.73332511
  -Hartree energ DENC   =    -13835.91318871
  -exchange      EXHF   =         0.00000000
  -V(xc)+E(xc)   XCENC  =      1146.78572226
  PAW double counting   =     40008.96445583   -39478.40375335
  entropy T*S    EENTRO =         0.00000000
  eigenvalues    EBANDS =     -1972.84838127
  atomic energy  EATOM  =     46009.82289571
  ---------------------------------------------------
  free energy    TOTEN  =       -58.00608453 eV

  energy without entropy =      -58.00608453  energy(sigma->0) =      -58.00608453


--------------------------------------------------------------------------------------------------------




----------------------------------------- Iteration    1(   4)  ---------------------------------------


     EDDAV:  cpu time  152.05: real time  158.67
 BZINTS: Fermi energy:  4.282422;508.000000 electrons
         Band energy:***********;  BLOECHL correction:  0.000000
       DOS:  cpu time    0.02: real time    0.02
    --------------------------------------------
      LOOP:  cpu time  152.07: real time  158.72

 eigenvalue-minimisations  : 11168
 total energy-change (2. order) :-0.1680097E+03  (-0.1643209E+03)
 number of electron     509.0000000 magnetization 
 augmentation part      509.0000000 magnetization 

 Free energy of the ion-electron system (eV)
  ---------------------------------------------------
  alpha Z        PSCENC =      1326.31949012
  Ewald energy   TEWEN  =    -33262.73332511
  -Hartree energ DENC   =    -13835.91318871
  -exchange      EXHF   =         0.00000000
  -V(xc)+E(xc)   XCENC  =      1146.78572226
  PAW double counting   =     40008.96445583   -39478.40375335
  entropy T*S    EENTRO =         0.00000000
  eigenvalues    EBANDS =     -2140.85809532
  atomic energy  EATOM  =     46009.82289571
  ---------------------------------------------------
  free energy    TOTEN  =      -226.01579858 eV

  energy without entropy =     -226.01579858  energy(sigma->0) =     -226.01579858


--------------------------------------------------------------------------------------------------------




----------------------------------------- Iteration    1(   5)  ---------------------------------------


     EDDAV:  cpu time  140.98: real time  147.15
 BZINTS: Fermi energy:  4.171094;508.000000 electrons
         Band energy:***********;  BLOECHL correction:  0.000000
       DOS:  cpu time    0.02: real time    0.02
    CHARGE:  cpu time    4.85: real time    4.87
    MIXING:  cpu time    0.01: real time    0.01
    --------------------------------------------
      LOOP:  cpu time  145.86: real time  152.07

 eigenvalue-minimisations  : 10144
 total energy-change (2. order) :-0.6297138E+01  (-0.6215491E+01)
 number of electron     507.9999966 magnetization 
 augmentation part      138.9585056 magnetization 

 Broyden mixing:
  rms(total) = 0.41080E+01    rms(broyden)= 0.41079E+01
  rms(prec ) = 0.44576E+01
  weight for this iteration     100.00

 Free energy of the ion-electron system (eV)
  ---------------------------------------------------
  alpha Z        PSCENC =      1326.31949012
  Ewald energy   TEWEN  =    -33262.73332511
  -Hartree energ DENC   =    -13835.91318871
  -exchange      EXHF   =         0.00000000
  -V(xc)+E(xc)   XCENC  =      1146.78572226
  PAW double counting   =     40008.96445583   -39478.40375335
  entropy T*S    EENTRO =         0.00000000
  eigenvalues    EBANDS =     -2147.15523301
  atomic energy  EATOM  =     46009.82289571
  ---------------------------------------------------
  free energy    TOTEN  =      -232.31293627 eV

  energy without entropy =     -232.31293627  energy(sigma->0) =     -232.31293627


--------------------------------------------------------------------------------------------------------




----------------------------------------- Iteration    1(   6)  ---------------------------------------


    POTLOK:  cpu time    0.37: real time    0.39
    SETDIJ:  cpu time    0.02: real time    0.02
     EDDAV:  cpu time  152.05: real time  158.60
 BZINTS: Fermi energy:  4.396094;508.000000 electrons
         Band energy:***********;  BLOECHL correction:  0.000000
       DOS:  cpu time    0.02: real time    0.02
    CHARGE:  cpu time    4.84: real time    4.86
    MIXING:  cpu time    0.01: real time    0.01
    --------------------------------------------
      LOOP:  cpu time  157.31: real time  163.93

 eigenvalue-minimisations  : 11192
 total energy-change (2. order) : 0.1387460E+02  (-0.2512418E+01)
 number of electron     507.9999967 magnetization 
 augmentation part      140.2199129 magnetization 

 Broyden mixing:
  rms(total) = 0.26261E+01    rms(broyden)= 0.26261E+01
  rms(prec ) = 0.27076E+01
  weight for this iteration     100.00

 eigenvalues of (default mixing * dielectric matrix)
  average eigenvalue GAMMA=   1.7617
  1.7617

 Free energy of the ion-electron system (eV)
  ---------------------------------------------------
  alpha Z        PSCENC =      1326.31949012
  Ewald energy   TEWEN  =    -33262.73332511
  -Hartree energ DENC   =    -13762.03087700
  -exchange      EXHF   =         0.00000000
  -V(xc)+E(xc)   XCENC  =      1148.33865920
  PAW double counting   =     48722.53511230   -48161.90702265
  entropy T*S    EENTRO =         0.00000000
  eigenvalues    EBANDS =     -2238.78326535
  atomic energy  EATOM  =     46009.82289571
  ---------------------------------------------------
  free energy    TOTEN  =      -218.43833278 eV

  energy without entropy =     -218.43833278  energy(sigma->0) =     -218.43833278


--------------------------------------------------------------------------------------------------------




----------------------------------------- Iteration    1(   7)  ---------------------------------------


    POTLOK:  cpu time    0.37: real time    0.39
    SETDIJ:  cpu time    0.02: real time    0.02
     EDDAV:  cpu time  153.33: real time  159.95
 BZINTS: Fermi energy:  4.563672;508.000000 electrons
         Band energy:***********;  BLOECHL correction:  0.000000
       DOS:  cpu time    0.02: real time    0.02
    CHARGE:  cpu time    4.87: real time    4.89
    MIXING:  cpu time    0.01: real time    0.01
    --------------------------------------------
      LOOP:  cpu time  158.61: real time  165.31

 eigenvalue-minimisations  : 11352
 total energy-change (2. order) : 0.6458773E-01  (-0.2186704E+01)
 number of electron     507.9999968 magnetization 
 augmentation part      141.1836457 magnetization 

 Broyden mixing:
  rms(total) = 0.96174E+00    rms(broyden)= 0.96173E+00
  rms(prec ) = 0.10046E+01
  weight for this iteration     100.00

 eigenvalues of (default mixing * dielectric matrix)
  average eigenvalue GAMMA=   1.6749
  1.2872  2.0626

 Free energy of the ion-electron system (eV)
  ---------------------------------------------------
  alpha Z        PSCENC =      1326.31949012
  Ewald energy   TEWEN  =    -33262.73332511
  -Hartree energ DENC   =    -13760.63360926
  -exchange      EXHF   =         0.00000000
  -V(xc)+E(xc)   XCENC  =      1153.21322454
  PAW double counting   =     58494.86547180   -57925.93802016
  entropy T*S    EENTRO =         0.00000000
  eigenvalues    EBANDS =     -2253.28987269
  atomic energy  EATOM  =     46009.82289571
  ---------------------------------------------------
  free energy    TOTEN  =      -218.37374505 eV

  energy without entropy =     -218.37374505  energy(sigma->0) =     -218.37374505


--------------------------------------------------------------------------------------------------------




----------------------------------------- Iteration    1(   8)  ---------------------------------------


    POTLOK:  cpu time    0.36: real time    0.38
    SETDIJ:  cpu time    0.02: real time    0.02
     EDDAV:  cpu time  151.87: real time  158.16
 BZINTS: Fermi energy:  4.527344;508.000000 electrons
         Band energy:***********;  BLOECHL correction:  0.000000
       DOS:  cpu time    0.01: real time    0.02
    CHARGE:  cpu time    4.90: real time    4.91
    MIXING:  cpu time    0.01: real time    0.01
    --------------------------------------------
      LOOP:  cpu time  157.17: real time  163.53

 eigenvalue-minimisations  : 11248
 total energy-change (2. order) : 0.1456738E+00  (-0.3650755E+00)
 number of electron     507.9999968 magnetization 
 augmentation part      140.6580203 magnetization 

 Broyden mixing:
  rms(total) = 0.42198E+00    rms(broyden)= 0.42198E+00
  rms(prec ) = 0.43402E+00
  weight for this iteration     100.00

 eigenvalues of (default mixing * dielectric matrix)
  average eigenvalue GAMMA=   1.3987
  2.1853  1.0053  1.0053

 Free energy of the ion-electron system (eV)
  ---------------------------------------------------
  alpha Z        PSCENC =      1326.31949012
  Ewald energy   TEWEN  =    -33262.73332511
  -Hartree energ DENC   =    -13784.96260590
  -exchange      EXHF   =         0.00000000
  -V(xc)+E(xc)   XCENC  =      1153.48352483
  PAW double counting   =     61934.36580167   -61373.08720803
  entropy T*S    EENTRO =         0.00000000
  eigenvalues    EBANDS =     -2221.43664451
  atomic energy  EATOM  =     46009.82289571
  ---------------------------------------------------
  free energy    TOTEN  =      -218.22807123 eV

  energy without entropy =     -218.22807123  energy(sigma->0) =     -218.22807123


--------------------------------------------------------------------------------------------------------




----------------------------------------- Iteration    1(   9)  ---------------------------------------


    POTLOK:  cpu time    0.36: real time    0.38
    SETDIJ:  cpu time    0.02: real time    0.02
     EDDAV:  cpu time  153.00: real time  159.32
 BZINTS: Fermi energy:  4.544922;508.000000 electrons
         Band energy:***********;  BLOECHL correction:  0.000000
       DOS:  cpu time    0.02: real time    0.02
    CHARGE:  cpu time    4.90: real time    4.92
    MIXING:  cpu time    0.01: real time    0.01
    --------------------------------------------
      LOOP:  cpu time  158.31: real time  164.69

 eigenvalue-minimisations  : 11352
 total energy-change (2. order) : 0.1467950E-01  (-0.2428972E-01)
 number of electron     507.9999968 magnetization 
 augmentation part      140.7403582 magnetization 

 Broyden mixing:
  rms(total) = 0.15925E+00    rms(broyden)= 0.15925E+00
  rms(prec ) = 0.16443E+00
  weight for this iteration     100.00

 eigenvalues of (default mixing * dielectric matrix)
  average eigenvalue GAMMA=   1.4452
  1.8650  1.8650  1.0253  1.0253

 Free energy of the ion-electron system (eV)
  ---------------------------------------------------
  alpha Z        PSCENC =      1326.31949012
  Ewald energy   TEWEN  =    -33262.73332511
  -Hartree energ DENC   =    -13775.51230432
  -exchange      EXHF   =         0.00000000
  -V(xc)+E(xc)   XCENC  =      1153.71287259
  PAW double counting   =     62780.41451984   -62216.69626481
  entropy T*S    EENTRO =         0.00000000
  eigenvalues    EBANDS =     -2233.54127576
  atomic energy  EATOM  =     46009.82289571
  ---------------------------------------------------
  free energy    TOTEN  =      -218.21339174 eV

  energy without entropy =     -218.21339174  energy(sigma->0) =     -218.21339174


--------------------------------------------------------------------------------------------------------




----------------------------------------- Iteration    1(  10)  ---------------------------------------


    POTLOK:  cpu time    0.36: real time    0.38
    SETDIJ:  cpu time    0.02: real time    0.02
     EDDAV:  cpu time  150.25: real time  156.42
 BZINTS: Fermi energy:  4.546094;508.000000 electrons
         Band energy:***********;  BLOECHL correction:  0.000000
       DOS:  cpu time    0.02: real time    0.02
    CHARGE:  cpu time    4.88: real time    4.91
    MIXING:  cpu time    0.01: real time    0.01
    --------------------------------------------
      LOOP:  cpu time  155.56: real time  161.79

 eigenvalue-minimisations  : 11088
 total energy-change (2. order) :-0.5000924E-02  (-0.3348123E-02)
 number of electron     507.9999968 magnetization 
 augmentation part      140.7654547 magnetization 

 Broyden mixing:
  rms(total) = 0.10569E+00    rms(broyden)= 0.10569E+00
  rms(prec ) = 0.10816E+00
  weight for this iteration     100.00

 eigenvalues of (default mixing * dielectric matrix)
  average eigenvalue GAMMA=   1.6314
  2.5293  2.5293  1.1498  1.1498  0.7989

 Free energy of the ion-electron system (eV)
  ---------------------------------------------------
  alpha Z        PSCENC =      1326.31949012
  Ewald energy   TEWEN  =    -33262.73332511
  -Hartree energ DENC   =    -13773.39501794
  -exchange      EXHF   =         0.00000000
  -V(xc)+E(xc)   XCENC  =      1153.75096343
  PAW double counting   =     62656.17702194   -62091.88567644
  entropy T*S    EENTRO =         0.00000000
  eigenvalues    EBANDS =     -2236.27474436
  atomic energy  EATOM  =     46009.82289571
  ---------------------------------------------------
  free energy    TOTEN  =      -218.21839266 eV

  energy without entropy =     -218.21839266  energy(sigma->0) =     -218.21839266


--------------------------------------------------------------------------------------------------------




----------------------------------------- Iteration    1(  11)  ---------------------------------------


    POTLOK:  cpu time    0.36: real time    0.38
    SETDIJ:  cpu time    0.02: real time    0.02
     EDDAV:  cpu time  155.76: real time  162.21
 BZINTS: Fermi energy:  4.546094;508.000000 electrons
         Band energy:***********;  BLOECHL correction:  0.000000
       DOS:  cpu time    0.01: real time    0.02
    CHARGE:  cpu time    4.90: real time    4.91
    MIXING:  cpu time    0.01: real time    0.01
    --------------------------------------------
      LOOP:  cpu time  161.06: real time  167.57

 eigenvalue-minimisations  : 11616
 total energy-change (2. order) :-0.4907933E-02  (-0.1154885E-02)
 number of electron     507.9999968 magnetization 
 augmentation part      140.7393302 magnetization 

 Broyden mixing:
  rms(total) = 0.25109E-01    rms(broyden)= 0.25109E-01
  rms(prec ) = 0.31439E-01
  weight for this iteration     100.00

 eigenvalues of (default mixing * dielectric matrix)
  average eigenvalue GAMMA=   1.5057
  2.4860  2.4860  1.1495  1.1495  0.8816  0.8816

 Free energy of the ion-electron system (eV)
  ---------------------------------------------------
  alpha Z        PSCENC =      1326.31949012
  Ewald energy   TEWEN  =    -33262.73332511
  -Hartree energ DENC   =    -13775.54459640
  -exchange      EXHF   =         0.00000000
  -V(xc)+E(xc)   XCENC  =      1153.90391727
  PAW double counting   =     62543.45395240   -61979.15282461
  entropy T*S    EENTRO =         0.00000000
  eigenvalues    EBANDS =     -2234.29280998
  atomic energy  EATOM  =     46009.82289571
  ---------------------------------------------------
  free energy    TOTEN  =      -218.22330059 eV

  energy without entropy =     -218.22330059  energy(sigma->0) =     -218.22330059


--------------------------------------------------------------------------------------------------------




----------------------------------------- Iteration    1(  12)  ---------------------------------------


    POTLOK:  cpu time    0.36: real time    0.38
    SETDIJ:  cpu time    0.02: real time    0.02
     EDDAV:  cpu time  149.24: real time  155.44
 BZINTS: Fermi energy:  4.546094;508.000000 electrons
         Band energy:***********;  BLOECHL correction:  0.000000
       DOS:  cpu time    0.02: real time    0.02
    CHARGE:  cpu time    4.88: real time    4.90
    MIXING:  cpu time    0.01: real time    0.01
    --------------------------------------------
      LOOP:  cpu time  154.53: real time  160.79

 eigenvalue-minimisations  : 10992
 total energy-change (2. order) : 0.1622216E-02  (-0.4971477E-03)
 number of electron     507.9999968 magnetization 
 augmentation part      140.7568469 magnetization 

 Broyden mixing:
  rms(total) = 0.11189E-01    rms(broyden)= 0.11189E-01
  rms(prec ) = 0.12171E-01
  weight for this iteration     100.00

 eigenvalues of (default mixing * dielectric matrix)
  average eigenvalue GAMMA=   1.5228
  2.3633  2.3633  1.5242  1.5242  0.8005  1.0422  1.0422

 Free energy of the ion-electron system (eV)
  ---------------------------------------------------
  alpha Z        PSCENC =      1326.31949012
  Ewald energy   TEWEN  =    -33262.73332511
  -Hartree energ DENC   =    -13775.31729079
  -exchange      EXHF   =         0.00000000
  -V(xc)+E(xc)   XCENC  =      1153.97281716
  PAW double counting   =     62533.66910679   -61969.01532710
  entropy T*S    EENTRO =         0.00000000
  eigenvalues    EBANDS =     -2234.94004516
  atomic energy  EATOM  =     46009.82289571
  ---------------------------------------------------
  free energy    TOTEN  =      -218.22167838 eV

  energy without entropy =     -218.22167838  energy(sigma->0) =     -218.22167838


--------------------------------------------------------------------------------------------------------




----------------------------------------- Iteration    1(  13)  ---------------------------------------


    POTLOK:  cpu time    0.36: real time    0.38
    SETDIJ:  cpu time    0.02: real time    0.02
     EDDAV:  cpu time  124.04: real time  129.20
 BZINTS: Fermi energy:  4.554297;508.000000 electrons
         Band energy:***********;  BLOECHL correction:  0.000000
       DOS:  cpu time    0.02: real time    0.02
    CHARGE:  cpu time    4.97: real time    4.99
    MIXING:  cpu time    0.01: real time    0.01
    --------------------------------------------
      LOOP:  cpu time  129.42: real time  134.65

 eigenvalue-minimisations  :  8552
 total energy-change (2. order) :-0.1233808E-03  (-0.1160843E-03)
 number of electron     507.9999968 magnetization 
 augmentation part      140.7639214 magnetization 

 Broyden mixing:
  rms(total) = 0.58996E-02    rms(broyden)= 0.58996E-02
  rms(prec ) = 0.61534E-02
  weight for this iteration     100.00

 eigenvalues of (default mixing * dielectric matrix)
  average eigenvalue GAMMA=   1.5300
  2.5112  2.5112  1.5721  1.5721  1.2152  0.8340  1.0120  1.0120

 Free energy of the ion-electron system (eV)
  ---------------------------------------------------
  alpha Z        PSCENC =      1326.31949012
  Ewald energy   TEWEN  =    -33262.73332511
  -Hartree energ DENC   =    -13775.50679091
  -exchange      EXHF   =         0.00000000
  -V(xc)+E(xc)   XCENC  =      1153.99728640
  PAW double counting   =     62557.18229354   -61992.50391003
  entropy T*S    EENTRO =         0.00000000
  eigenvalues    EBANDS =     -2234.79974147
  atomic energy  EATOM  =     46009.82289571
  ---------------------------------------------------
  free energy    TOTEN  =      -218.22180176 eV

  energy without entropy =     -218.22180176  energy(sigma->0) =     -218.22180176


--------------------------------------------------------------------------------------------------------




----------------------------------------- Iteration    1(  14)  ---------------------------------------


    POTLOK:  cpu time    0.36: real time    0.38
    SETDIJ:  cpu time    0.02: real time    0.02
     EDDAV:  cpu time   91.70: real time   95.57
 BZINTS: Fermi energy:  4.554297;508.000000 electrons
         Band energy:***********;  BLOECHL correction:  0.000000
       DOS:  cpu time    0.02: real time    0.02
    --------------------------------------------
      LOOP:  cpu time   92.10: real time   96.02

 eigenvalue-minimisations  :  5472
 total energy-change (2. order) :-0.5250417E-04  (-0.7505612E-05)
 number of electron     507.9999968 magnetization 
 augmentation part      140.7639214 magnetization 

 Free energy of the ion-electron system (eV)
  ---------------------------------------------------
  alpha Z        PSCENC =      1326.31949012
  Ewald energy   TEWEN  =    -33262.73332511
  -Hartree energ DENC   =    -13775.71014492
  -exchange      EXHF   =         0.00000000
  -V(xc)+E(xc)   XCENC  =      1154.01318943
  PAW double counting   =     62543.83255751   -61979.12985645
  entropy T*S    EENTRO =         0.00000000
  eigenvalues    EBANDS =     -2234.63666055
  atomic energy  EATOM  =     46009.82289571
  ---------------------------------------------------
  free energy    TOTEN  =      -218.22185426 eV

  energy without entropy =     -218.22185426  energy(sigma->0) =     -218.22185426


--------------------------------------------------------------------------------------------------------




 average (electrostatic) potential at core
  the test charge radii are     1.0698  1.0774  0.9698
  (the norm of the test charge is              1.0000)
       1 -37.0420       2 -37.0423       3 -37.0418       4 -37.4258       5 -37.0401
       6 -37.0402       7 -37.4198       8 -37.0384       9 -96.7334      10 -96.5583
      11 -96.6671      12 -96.6655      13 -96.5786      14 -96.7332      15 -96.7284
      16 -96.6667      17 -96.5612      18 -96.6647      19 -96.5584      20 -96.7337
      21 -96.6645      22 -96.6661      23 -96.7282      24 -96.7335      25 -96.2616
      26 -86.7148      27 -86.8397      28 -86.8314      29 -86.6910      30 -86.8441
      31 -86.7147      32 -86.6881      33 -86.8454      34 -86.9216      35 -86.7180
      36 -86.7185      37 -86.9153      38 -86.7105      39 -86.7158      40 -86.8317
      41 -86.8442      42 -86.6886      43 -86.8448      44 -86.6891      45 -86.8233
      46 -86.8436      47 -86.7148      48 -86.8403      49 -86.7143      50 -86.6880
      51 -86.8308      52 -86.8235      53 -86.6897      54 -86.7189      55 -86.7150
      56 -86.7108      57 -86.7177
 
 
 
 E-fermi :   4.5543     XC(G=0):  -9.4674     alpha+bet :-10.0553


 k-point     1 :       0.0000    0.0000    0.0000
  band No.  band energies     occupation 
      1     -10.4484      2.00000
      2     -10.3622      2.00000
      3     -10.3595      2.00000
      4     -10.3350      2.00000
      5     -10.3327      2.00000
      6     -10.3130      2.00000
      7     -10.2494      2.00000
      8     -10.2462      2.00000
      9     -10.2444      2.00000
     10     -10.2366      2.00000
     11     -10.2282      2.00000
     12     -10.2263      2.00000
     13     -10.2215      2.00000
     14     -10.2199      2.00000
     15     -10.1985      2.00000
     16     -10.0921      2.00000
     17     -10.0881      2.00000
     18     -10.0867      2.00000
     19     -10.0419      2.00000
     20     -10.0317      2.00000
     21     -10.0310      2.00000
     22     -10.0248      2.00000
     23     -10.0041      2.00000
     24     -10.0037      2.00000
     25      -9.9883      2.00000
     26      -9.9766      2.00000
     27      -9.9762      2.00000
     28      -9.9645      2.00000
     29      -9.9620      2.00000
     30      -9.9559      2.00000
     31      -9.9389      2.00000
     32      -9.9367      2.00000
     33      -9.9361      2.00000
     34      -9.9290      2.00000
     35      -9.9269      2.00000
     36      -9.9268      2.00000
     37      -9.9213      2.00000
     38      -9.9199      2.00000
     39      -9.9157      2.00000
     40      -9.9154      2.00000
     41      -9.9149      2.00000
     42      -9.9129      2.00000
     43      -9.9115      2.00000
     44      -9.9091      2.00000
     45      -9.9076      2.00000
     46      -9.9045      2.00000
     47      -9.9035      2.00000
     48      -9.9020      2.00000
     49      -9.8920      2.00000
     50      -9.8820      2.00000
     51      -9.8786      2.00000
     52      -9.8777      2.00000
     53      -9.8621      2.00000
     54      -9.8619      2.00000
     55      -9.8597      2.00000
     56      -9.8591      2.00000
     57      -9.8590      2.00000
     58      -9.8535      2.00000
     59      -9.8466      2.00000
     60      -9.8462      2.00000
     61      -9.8445      2.00000
     62      -9.8442      2.00000
     63      -9.8373      2.00000
     64      -9.8370      2.00000
     65      -9.8338      2.00000
     66      -9.8336      2.00000
     67      -9.8256      2.00000
     68      -9.8164      2.00000
     69      -9.7785      2.00000
     70      -9.7645      2.00000
     71      -9.7627      2.00000
     72      -9.7530      2.00000
     73      -9.7517      2.00000
     74      -9.7512      2.00000
     75      -9.7483      2.00000
     76      -9.7420      2.00000
     77      -9.7405      2.00000
     78      -9.7357      2.00000
     79      -9.7319      2.00000
     80      -9.7311      2.00000
     81      -9.6388      2.00000
     82      -9.6131      2.00000
     83      -9.6117      2.00000
     84      -9.4520      2.00000
     85      -9.4513      2.00000
     86      -9.1156      2.00000
     87      -8.6930      2.00000
     88      -8.6791      2.00000
     89      -8.6203      2.00000
     90      -8.6163      2.00000
     91      -8.5499      2.00000
     92      -8.5471      2.00000
     93      -8.2061      2.00000
     94      -8.0001      2.00000
     95      -7.9532      2.00000
     96      -7.9485      2.00000
     97      -7.9456      2.00000
     98      -7.8461      2.00000
     99      -7.8427      2.00000
    100      -7.8282      2.00000
    101      -7.8269      2.00000
    102      -7.8036      2.00000
    103      -7.7765      2.00000
    104      -7.7196      2.00000
    105      -7.6008      2.00000
    106      -7.5999      2.00000
    107      -7.5904      2.00000
    108      -7.5886      2.00000
    109      -7.3050      2.00000
    110      -7.2384      2.00000
    111      -7.2357      2.00000
    112      -7.1962      2.00000
    113      -7.1776      2.00000
    114      -7.1677      2.00000
    115      -7.1653      2.00000
    116      -7.1013      2.00000
    117      -7.0969      2.00000
    118      -4.3067      2.00000
    119      -4.3004      2.00000
    120      -4.1518      2.00000
    121      -4.1494      2.00000
    122      -4.1264      2.00000
    123      -4.1254      2.00000
    124      -4.0229      2.00000
    125      -4.0229      2.00000
    126      -4.0058      2.00000
    127      -4.0055      2.00000
    128      -3.8563      2.00000
    129      -3.8402      2.00000
    130      -3.8399      2.00000
    131      -3.8258      2.00000
    132      -3.8250      2.00000
    133      -3.7981      2.00000
    134      -3.7853      2.00000
    135      -3.7479      2.00000
    136      -3.7473      2.00000
    137      -3.7364      2.00000
    138      -3.7358      2.00000
    139      -3.7106      2.00000
    140      -3.7073      2.00000
    141      -3.7073      2.00000
    142      -3.6912      2.00000
    143      -3.6906      2.00000
    144      -3.6899      2.00000
    145      -3.6898      2.00000
    146      -3.6884      2.00000
    147      -3.6881      2.00000
    148      -3.6871      2.00000
    149      -3.6864      2.00000
    150      -3.6851      2.00000
    151      -3.6745      2.00000
    152      -3.6742      2.00000
    153      -3.6718      2.00000
    154      -3.6709      2.00000
    155      -3.6701      2.00000
    156      -3.6700      2.00000
    157      -3.6562      2.00000
    158      -2.1265      2.00000
    159      -1.7553      2.00000
    160      -1.7159      2.00000
    161      -1.7148      2.00000
    162      -1.2994      2.00000
    163      -1.2987      2.00000
    164      -1.2572      2.00000
    165      -1.2559      2.00000
    166      -1.2394      2.00000
    167      -1.2343      2.00000
    168      -1.1854      2.00000
    169      -1.0872      2.00000
    170      -0.8902      2.00000
    171      -0.8879      2.00000
    172      -0.8416      2.00000
    173      -0.8405      2.00000
    174      -0.8192      2.00000
    175      -0.2119      2.00000
    176      -0.1002      2.00000
    177      -0.0989      2.00000
    178       0.0016      2.00000
    179       0.0639      2.00000
    180       0.0664      2.00000
    181       0.0866      2.00000
    182       0.0871      2.00000
    183       0.2019      2.00000
    184       0.6079      2.00000
    185       0.6099      2.00000
    186       0.7060      2.00000
    187       0.7435      2.00000
    188       0.7436      2.00000
    189       0.8095      2.00000
    190       0.8924      2.00000
    191       0.9935      2.00000
    192       0.9956      2.00000
    193       1.0633      2.00000
    194       1.0644      2.00000
    195       1.1449      2.00000
    196       1.1466      2.00000
    197       1.1586      2.00000
    198       1.2131      2.00000
    199       1.3289      2.00000
    200       1.3329      2.00000
    201       1.3411      2.00000
    202       1.3473      2.00000
    203       1.3488      2.00000
    204       1.3796      2.00000
    205       1.3820      2.00000
    206       1.3838      2.00000
    207       1.4122      2.00000
    208       1.4285      2.00000
    209       1.4289      2.00000
    210       1.4752      2.00000
    211       1.8373      2.00000
    212       1.8389      2.00000
    213       1.8922      2.00000
    214       1.9337      2.00000
    215       1.9345      2.00000
    216       1.9676      2.00000
    217       1.9677      2.00000
    218       2.0469      2.00000
    219       2.1962      2.00000
    220       2.2371      2.00000
    221       2.2395      2.00000
    222       2.2443      2.00000
    223       2.3264      2.00000
    224       2.3281      2.00000
    225       2.4742      2.00000
    226       2.5046      2.00000
    227       2.5048      2.00000
    228       2.5753      2.00000
    229       2.5754      2.00000
    230       2.6405      2.00000
    231       2.9549      2.00000
    232       3.0141      2.00000
    233       3.0195      2.00000
    234       3.0421      2.00000
    235       3.1088      2.00000
    236       3.1123      2.00000
    237       3.1197      2.00000
    238       3.1203      2.00000
    239       3.1487      2.00000
    240       3.1489      2.00000
    241       3.1747      2.00000
    242       3.1838      2.00000
    243       3.2432      2.00000
    244       3.2466      2.00000
    245       3.2875      2.00000
    246       3.2881      2.00000
    247       3.3239      2.00000
    248       3.3251      2.00000
    249       3.3403      2.00000
    250       3.4008      2.00000
    251       3.4121      2.00000
    252       3.4421      2.00000
    253       3.4423      2.00000
    254       4.0964      2.00000
    255       4.7299      0.00000
    256       5.4403      0.00000
    257       5.4467      0.00000
    258       5.6302      0.00000
    259       6.2985      0.00000
    260       6.4927      0.00000
    261       6.4964      0.00000
    262       6.5967      0.00000
    263       6.6373      0.00000
    264       6.6382      0.00000
    265       6.6470      0.00000
    266       6.8066      0.00000
    267       6.9366      0.00000
    268       6.9370      0.00000
    269       6.9549      0.00000
    270       6.9560      0.00000
    271       7.2246      0.00000
    272       7.2477      0.00000
    273       7.4280      0.00000
    274       7.5302      0.00000
    275       7.5326      0.00000
    276       7.7669      0.00000
    277       7.8175      0.00000
    278       7.9775      0.00000
    279       7.9795      0.00000
    280       8.0074      0.00000
    281       8.0083      0.00000
    282       8.3510      0.00000
    283       8.5413      0.00000
    284       8.5429      0.00000
    285       8.8079      0.00000
    286       8.8099      0.00000
    287       8.8994      0.00000
    288       8.9062      0.00000
    289       9.0995      0.00000
    290       9.1003      0.00000
    291       9.1127      0.00000
    292       9.1299      0.00000
    293       9.1749      0.00000
    294       9.2117      0.00000
    295       9.3692      0.00000
    296       9.3727      0.00000
    297       9.6371      0.00000
    298       9.6429      0.00000
    299       9.7394      0.00000
    300       9.7428      0.00000
    301       9.9882      0.00000
    302      10.0095      0.00000
    303      10.0872      0.00000
    304      10.1255      0.00000

 k-point     2 :       0.3333    0.0000    0.0000
  band No.  band energies     occupation 
      1     -10.4278      2.00000
      2     -10.3724      2.00000
      3     -10.3447      2.00000
      4     -10.3406      2.00000
      5     -10.3373      2.00000
      6     -10.3208      2.00000
      7     -10.2911      2.00000
      8     -10.2852      2.00000
      9     -10.2668      2.00000
     10     -10.2618      2.00000
     11     -10.2147      2.00000
     12     -10.2070      2.00000
     13     -10.2003      2.00000
     14     -10.1868      2.00000
     15     -10.1289      2.00000
     16     -10.1064      2.00000
     17     -10.0904      2.00000
     18     -10.0698      2.00000
     19     -10.0546      2.00000
     20     -10.0405      2.00000
     21     -10.0350      2.00000
     22     -10.0126      2.00000
     23     -10.0020      2.00000
     24      -9.9985      2.00000
     25      -9.9843      2.00000
     26      -9.9788      2.00000
     27      -9.9766      2.00000
     28      -9.9648      2.00000
     29      -9.9562      2.00000
     30      -9.9545      2.00000
     31      -9.9468      2.00000
     32      -9.9384      2.00000
     33      -9.9368      2.00000
     34      -9.9310      2.00000
     35      -9.9285      2.00000
     36      -9.9279      2.00000
     37      -9.9250      2.00000
     38      -9.9223      2.00000
     39      -9.9215      2.00000
     40      -9.9186      2.00000
     41      -9.9160      2.00000
     42      -9.9150      2.00000
     43      -9.9123      2.00000
     44      -9.9092      2.00000
     45      -9.9033      2.00000
     46      -9.9024      2.00000
     47      -9.8992      2.00000
     48      -9.8969      2.00000
     49      -9.8942      2.00000
     50      -9.8866      2.00000
     51      -9.8822      2.00000
     52      -9.8769      2.00000
     53      -9.8613      2.00000
     54      -9.8588      2.00000
     55      -9.8585      2.00000
     56      -9.8572      2.00000
     57      -9.8556      2.00000
     58      -9.8536      2.00000
     59      -9.8504      2.00000
     60      -9.8492      2.00000
     61      -9.8447      2.00000
     62      -9.8430      2.00000
     63      -9.8406      2.00000
     64      -9.8375      2.00000
     65      -9.8364      2.00000
     66      -9.8347      2.00000
     67      -9.8252      2.00000
     68      -9.8199      2.00000
     69      -9.7774      2.00000
     70      -9.7628      2.00000
     71      -9.7604      2.00000
     72      -9.7552      2.00000
     73      -9.7507      2.00000
     74      -9.7505      2.00000
     75      -9.7472      2.00000
     76      -9.7421      2.00000
     77      -9.7413      2.00000
     78      -9.7365      2.00000
     79      -9.7338      2.00000
     80      -9.7324      2.00000
     81      -9.6388      2.00000
     82      -9.6159      2.00000
     83      -9.6127      2.00000
     84      -9.4521      2.00000
     85      -9.4514      2.00000
[...]
 20        0.722   0.586   9.946  11.254
 21        0.719   0.597   9.950  11.266
 22        0.719   0.595   9.950  11.264
 23        0.722   0.586   9.946  11.255
 24        0.722   0.586   9.946  11.254
 25        1.097   0.396   9.886  11.379
 26        1.338   2.375   0.000   3.713
 27        1.339   2.374   0.000   3.713
 28        1.347   2.353   0.000   3.701
 29        1.338   2.378   0.000   3.715
 30        1.339   2.375   0.000   3.714
 31        1.338   2.375   0.000   3.713
 32        1.338   2.377   0.000   3.715
 33        1.347   2.354   0.000   3.701
 34        1.340   2.401   0.000   3.741
 35        1.338   2.375   0.000   3.713
 36        1.338   2.375   0.000   3.713
 37        1.339   2.402   0.000   3.742
 38        1.338   2.374   0.000   3.713
 39        1.338   2.375   0.000   3.713
 40        1.347   2.353   0.000   3.701
 41        1.339   2.374   0.000   3.713
 42        1.338   2.377   0.000   3.715
 43        1.339   2.375   0.000   3.714
 44        1.338   2.377   0.000   3.715
 45        1.348   2.351   0.000   3.699
 46        1.339   2.375   0.000   3.714
 47        1.338   2.375   0.000   3.713
 48        1.339   2.374   0.000   3.713
 49        1.338   2.375   0.000   3.713
 50        1.338   2.377   0.000   3.715
 51        1.348   2.352   0.000   3.700
 52        1.348   2.351   0.000   3.699
 53        1.338   2.377   0.000   3.715
 54        1.338   2.375   0.000   3.713
 55        1.338   2.375   0.000   3.713
 56        1.338   2.374   0.000   3.713
 57        1.338   2.375   0.000   3.713
------------------------------------------------
tot       58.911  88.066 245.534 392.511
 
    CHARGE:  cpu time    4.95: real time    4.97
    FORLOC:  cpu time    0.14: real time    0.14
    FORNL :  cpu time  103.71: real time  103.99
    FORCOR:  cpu time    0.49: real time    0.50
    FORHAR:  cpu time    0.22: real time    0.23
    MIXING:  cpu time    0.01: real time    0.01
    OFIELD:  cpu time    0.00: real time    0.00

 VOLUME and BASIS-vectors are now :
 -----------------------------------------------------------------------------
  energy-cutoff  :      600.00
  volume of cell :     1339.13
      direct lattice vectors                 reciprocal lattice vectors
    11.022353692  0.000000000  0.000000000     0.090724724  0.000000000  0.000000000
     0.000000000 11.022353692  0.000000000     0.000000000  0.090724724  0.000000000
     0.000000000  0.000000000 11.022353692     0.000000000  0.000000000  0.090724724

  length of vectors
    11.022353692 11.022353692 11.022353692     0.090724724  0.090724724  0.090724724


 FORCES acting on ions
    electron-ion (+dipol)            ewald-force                    non-local-force                 convergence-correction
 -----------------------------------------------------------------------------------------------
   0.100E+02 -.946E+01 -.100E+02   -.104E+02 0.935E+01 0.104E+02   0.358E+00 0.973E-01 -.357E+00   0.466E-03 0.372E-03 -.498E-03
   0.951E+01 0.926E+01 0.899E+01   -.987E+01 -.961E+01 -.890E+01   0.355E+00 0.355E+00 -.779E-01   0.422E-03 0.405E-03 -.187E-03
   -.903E+01 0.926E+01 -.960E+01   0.894E+01 -.962E+01 0.996E+01   0.763E-01 0.358E+00 -.355E+00   0.204E-03 0.499E-03 -.464E-03
   -.934E+02 -.903E+02 0.934E+02   0.949E+02 0.919E+02 -.949E+02   -.149E+01 -.162E+01 0.149E+01   0.911E-03 0.746E-03 -.703E-03
   -.883E+01 -.874E+01 -.104E+02   0.919E+01 0.910E+01 0.102E+02   -.368E+00 -.363E+00 0.142E+00   -.502E-03 -.407E-03 0.247E-03
   0.104E+02 -.869E+01 0.878E+01   -.103E+02 0.905E+01 -.914E+01   -.143E+00 -.361E+00 0.369E+00   -.366E-03 -.347E-03 0.495E-03
   0.932E+02 0.928E+02 -.930E+02   -.947E+02 -.942E+02 0.945E+02   0.155E+01 0.146E+01 -.155E+01   -.901E-03 -.939E-03 0.961E-03
   -.774E+01 0.835E+01 0.767E+01   0.809E+01 -.820E+01 -.802E+01   -.358E+00 -.151E+00 0.360E+00   -.480E-03 -.243E-03 0.507E-03
   -.537E+02 0.519E+02 0.111E+01   0.546E+02 -.529E+02 -.110E+01   -.939E+00 0.976E+00 -.236E-01   0.651E-03 -.543E-03 0.206E-04
   -.164E+01 -.684E+00 -.122E+01   0.165E+01 0.676E+00 0.123E+01   -.150E-02 0.145E-01 -.132E-01   0.215E-04 -.118E-03 -.199E-04
   -.744E+01 -.145E+02 0.157E+02   0.782E+01 0.146E+02 -.158E+02   -.399E+00 -.839E-01 0.898E-01   0.818E-03 -.177E-03 0.191E-03
   0.155E+02 0.838E+01 -.155E+02   -.156E+02 -.871E+01 0.155E+02   0.689E-01 0.328E+00 -.672E-01   0.213E-03 -.715E-03 -.265E-03
   0.628E+00 0.669E+00 -.546E+00   -.628E+00 -.657E+00 0.543E+00   -.143E-02 -.164E-01 0.134E-02   0.655E-04 -.289E-05 0.574E-04
   -.220E+00 -.522E+02 -.520E+02   0.214E+00 0.531E+02 0.530E+02   0.165E-01 -.910E+00 -.998E+00   -.256E-04 0.601E-03 0.542E-03
   0.528E+02 -.322E+00 0.527E+02   -.538E+02 0.328E+00 -.537E+02   0.943E+00 -.368E-02 0.942E+00   -.589E-03 0.394E-04 -.560E-03
   -.158E+02 -.144E+02 0.737E+01   0.159E+02 0.145E+02 -.775E+01   -.864E-01 -.899E-01 0.400E+00   -.150E-03 -.220E-03 -.831E-03
   0.221E-01 -.190E+01 0.683E-01   -.241E-01 0.190E+01 -.637E-01   0.734E-02 0.140E-01 -.929E-02   0.976E-06 -.124E-03 -.311E-05
   0.908E+01 0.156E+02 -.153E+02   -.938E+01 -.157E+02 0.154E+02   0.311E+00 0.688E-01 -.730E-01   -.662E-03 0.204E-03 -.290E-03
   0.129E+01 -.545E+00 0.165E+01   -.130E+01 0.538E+00 -.165E+01   0.456E-02 0.111E-01 -.123E-02   -.182E-03 -.117E-03 -.298E-05
   -.946E+00 0.518E+02 0.534E+02   0.931E+00 -.528E+02 -.544E+02   0.219E-01 0.976E+00 0.943E+00   0.437E-04 -.668E-03 -.645E-03
   0.153E+02 0.156E+02 -.914E+01   -.154E+02 -.157E+02 0.945E+01   0.745E-01 0.724E-01 -.313E+00   0.279E-03 0.155E-03 0.647E-03
   -.158E+02 -.844E+01 0.159E+02   0.159E+02 0.879E+01 -.160E+02   -.997E-01 -.385E+00 0.953E-01   -.180E-03 0.786E-03 0.296E-03
   -.529E+02 -.316E+00 -.530E+02   0.538E+02 0.322E+00 0.539E+02   -.937E+00 -.336E-02 -.938E+00   0.599E-03 0.885E-04 0.465E-03
   0.520E+02 -.522E+02 0.339E+00   -.530E+02 0.531E+02 -.331E+00   0.996E+00 -.909E+00 -.188E-01   -.570E-03 0.694E-03 0.669E-04
   -.836E+00 -.108E+01 0.109E+01   0.598E+00 0.132E+01 -.861E+00   0.235E+00 -.230E+00 -.228E+00   0.343E-03 -.725E-04 -.114E-03
   0.551E+02 0.621E+02 0.606E+02   -.544E+02 -.618E+02 -.598E+02   -.730E+00 -.310E+00 -.885E+00   0.251E-04 0.341E-03 0.876E-04
   -.710E+02 -.711E+02 0.542E+02   0.706E+02 0.706E+02 -.540E+02   0.486E+00 0.499E+00 -.207E+00   -.205E-03 -.189E-03 0.209E-03
   0.246E+02 0.506E+02 -.504E+02   -.251E+02 -.503E+02 0.500E+02   0.415E+00 -.350E+00 0.375E+00   0.108E-03 -.121E-03 0.177E-03
   0.572E+02 -.552E+02 -.572E+02   -.565E+02 0.545E+02 0.565E+02   -.728E+00 0.683E+00 0.726E+00   0.125E-03 -.186E-03 -.933E-04
   0.709E+02 0.705E+02 -.531E+02   -.704E+02 -.700E+02 0.528E+02   -.510E+00 -.518E+00 0.270E+00   0.227E-03 0.162E-03 -.289E-03
   -.616E+02 -.561E+02 -.612E+02   0.613E+02 0.554E+02 0.604E+02   0.335E+00 0.722E+00 0.817E+00   -.328E-03 -.829E-04 -.126E-03
   0.547E+02 -.563E+02 0.563E+02   -.540E+02 0.556E+02 -.556E+02   -.691E+00 0.700E+00 -.706E+00   0.165E-03 -.641E-04 0.819E-04
   -.487E+02 -.238E+02 0.487E+02   0.482E+02 0.243E+02 -.483E+02   0.450E+00 -.447E+00 -.451E+00   0.143E-03 -.858E-04 -.146E-03
   0.299E+02 0.333E+02 -.299E+02   -.283E+02 -.317E+02 0.283E+02   -.163E+01 -.158E+01 0.164E+01   0.497E-04 -.325E-04 0.759E-04
   0.614E+02 -.622E+02 0.560E+02   -.606E+02 0.618E+02 -.552E+02   -.814E+00 0.322E+00 -.732E+00   0.612E-04 -.376E-03 0.911E-04
   -.563E+02 0.611E+02 0.619E+02   0.555E+02 -.603E+02 -.616E+02   0.720E+00 -.815E+00 -.321E+00   -.109E-03 0.262E-04 0.341E-03
   -.315E+02 -.303E+02 0.316E+02   0.300E+02 0.287E+02 -.300E+02   0.159E+01 0.159E+01 -.159E+01   0.440E-04 -.123E-04 -.380E-06
   -.606E+02 0.548E+02 -.634E+02   0.597E+02 -.541E+02 0.631E+02   0.874E+00 -.735E+00 0.303E+00   -.391E-04 0.480E-04 -.297E-03
   0.626E+02 -.600E+02 -.545E+02   -.623E+02 0.591E+02 0.538E+02   -.309E+00 0.887E+00 0.731E+00   0.353E-03 -.382E-04 -.115E-03
   0.505E+02 0.505E+02 -.248E+02   -.501E+02 -.502E+02 0.252E+02   -.373E+00 -.353E+00 -.419E+00   -.170E-03 -.155E-03 -.162E-03
   -.711E+02 -.554E+02 0.711E+02   0.707E+02 0.552E+02 -.707E+02   0.483E+00 0.221E+00 -.482E+00   -.213E-03 -.211E-03 0.247E-03
   -.545E+02 0.571E+02 -.570E+02   0.538E+02 -.564E+02 0.563E+02   0.696E+00 -.701E+00 0.693E+00   -.152E-03 0.960E-04 -.103E-03
   0.707E+02 0.530E+02 -.707E+02   -.702E+02 -.527E+02 0.702E+02   -.499E+00 -.273E+00 0.499E+00   0.204E-03 0.282E-03 -.248E-03
   -.564E+02 -.563E+02 -.548E+02   0.557E+02 0.556E+02 0.541E+02   0.709E+00 0.697E+00 0.695E+00   -.706E-04 -.150E-03 -.150E-03
   -.267E+02 -.520E+02 0.534E+02   0.271E+02 0.517E+02 -.531E+02   -.403E+00 0.312E+00 -.290E+00   -.183E-03 0.172E-03 -.236E-03
   0.529E+02 0.705E+02 -.709E+02   -.526E+02 -.700E+02 0.704E+02   -.270E+00 -.517E+00 0.513E+00   0.235E-03 0.160E-03 -.284E-03
   0.612E+02 -.561E+02 0.616E+02   -.603E+02 0.554E+02 -.613E+02   -.818E+00 0.728E+00 -.330E+00   0.754E-04 -.114E-03 0.306E-03
   -.542E+02 -.711E+02 0.710E+02   0.540E+02 0.706E+02 -.705E+02   0.205E+00 0.498E+00 -.487E+00   -.321E-03 -.117E-03 0.216E-03
   -.607E+02 0.621E+02 -.551E+02   0.598E+02 -.618E+02 0.543E+02   0.886E+00 -.311E+00 0.730E+00   -.650E-04 0.351E-03 -.289E-04
   0.570E+02 0.570E+02 0.546E+02   -.563E+02 -.563E+02 -.538E+02   -.692E+00 -.703E+00 -.694E+00   0.124E-03 0.823E-04 0.127E-03
   0.522E+02 0.270E+02 -.521E+02   -.519E+02 -.275E+02 0.518E+02   -.290E+00 0.423E+00 0.285E+00   -.112E-03 0.159E-03 0.166E-03
   -.532E+02 -.520E+02 0.265E+02   0.529E+02 0.517E+02 -.270E+02   0.291E+00 0.311E+00 0.401E+00   0.229E-03 0.153E-03 0.217E-03
   -.561E+02 0.550E+02 0.561E+02   0.554E+02 -.543E+02 -.554E+02   0.697E+00 -.707E+00 -.695E+00   -.413E-04 0.157E-03 0.154E-03
   -.620E+02 0.611E+02 0.563E+02   0.617E+02 -.602E+02 -.556E+02   0.320E+00 -.817E+00 -.719E+00   -.372E-03 0.811E-04 0.697E-04
   0.546E+02 -.599E+02 -.627E+02   -.538E+02 0.590E+02 0.623E+02   -.733E+00 0.888E+00 0.310E+00   0.458E-04 -.322E-04 -.376E-03
   0.635E+02 0.548E+02 0.605E+02   -.632E+02 -.541E+02 -.597E+02   -.300E+00 -.735E+00 -.875E+00   0.279E-03 0.111E-03 0.792E-04
   -.559E+02 -.621E+02 -.614E+02   0.552E+02 0.618E+02 0.606E+02   0.729E+00 0.321E+00 0.813E+00   -.108E-03 -.335E-03 -.829E-04
 -----------------------------------------------------------------------------------------------
   -.285E+00 0.456E+00 0.281E+00   0.242E-12 0.107E-12 -.711E-13   0.285E+00 -.457E+00 -.280E+00   0.436E-03 -.215E-04 -.178E-03
 
 
 POSITION                                       TOTAL-FORCE (eV/Angst)
 -----------------------------------------------------------------------------------
     11.01253     10.98502      0.01000        -0.004441     -0.013919      0.004444
     11.01456      5.49961      5.54528        -0.004813     -0.003416      0.013374
      5.47714      5.49986      0.00743        -0.013631     -0.004015      0.005203
      5.74982      0.28404      5.27257        -0.001439     -0.030894      0.001247
      8.28154      2.76653      8.22343        -0.010569     -0.000567      0.015111
      2.79898      2.76663      2.74076        -0.014411     -0.001068      0.009991
      2.50161      8.03167      8.52127         0.001012      0.004845     -0.001295
      8.28179      8.30419      2.74043        -0.005031     -0.002363      0.005343
      6.91739      6.85330      6.88924        -0.007495      0.011550     -0.006962
      4.13048      9.63779      1.38023         0.003678      0.006575     -0.003237
      9.75600      1.41289      4.09662        -0.017416     -0.010185      0.005265
      1.34331      4.02724      9.67902        -0.004803      0.005045      0.004654
      9.64591      4.13411      1.37624        -0.001075     -0.004897     -0.001696
      4.13158      1.40209      9.67831         0.009907     -0.008691     -0.006364
      1.34616      9.64154      4.10521         0.014053      0.001879      0.003575
      6.92565      1.41271      1.26631        -0.005620     -0.011618      0.016895
      4.12852      4.12678      6.89394         0.005370      0.010473     -0.004751
      9.54078      6.85250      9.67716         0.003150     -0.003385      0.001140
      9.64291      9.63841      6.89217         0.000044      0.004229     -0.003657
      4.13300      6.85327      4.10525         0.006997      0.012256      0.008722
      1.34514      6.85177      1.48185        -0.000027     -0.001998     -0.004385
      6.92593      4.24110      4.09622        -0.008780     -0.032444      0.006678
      6.91645      9.64142      9.67568        -0.002512      0.002515     -0.012082
      1.34415      1.40205      6.89081         0.006926     -0.009337     -0.010273
      4.14769      9.62109      6.87521        -0.002983      0.011979      0.001925
      4.26286      4.24088      4.23962         0.019876     -0.002802     -0.026718
      6.76189      1.24719      9.68776         0.015022      0.027080     -0.011541
      1.25453      9.70306      6.82990        -0.032802      0.000071      0.000380
      9.72325      6.77086      1.29910        -0.014493      0.001630      0.013554
      1.50727      7.01451      4.08964        -0.020357     -0.017438     -0.005552
      9.53077      9.50926      9.54781         0.004381      0.000512      0.003465
      7.00533      4.05785      1.44999         0.006715     -0.003129      0.005641
      4.07072      1.49588      6.95163        -0.011239      0.027384      0.011232
      7.14740      1.63137      3.87495        -0.011178     -0.003430      0.011368
      1.47448      4.01706      7.02243        -0.007779     -0.001851     -0.001768
      4.00287      6.98410      1.49188        -0.004701     -0.010270     -0.004537
      1.12723      6.63711      9.89517         0.000723     -0.010587     -0.000727
      6.78531      9.77287      1.26750         0.021418      0.014339     -0.007102
      9.75445      1.27139      6.75859         0.003710      0.016953     -0.022210
      4.19254      9.70312      9.76813        -0.001446     -0.000191      0.033526
      6.76274      6.84051      4.25935         0.013145      0.021456     -0.012375
      1.26418      4.20761      1.30204        -0.011593     -0.001661     -0.003315
      1.50542      1.41947      9.51698        -0.016787      0.006418      0.016835
      9.57130      4.05893      4.01617        -0.000939     -0.007111     -0.002917
      7.00712      9.58404      6.94941         0.029968      0.008511     -0.008857
      6.93266      7.01453      9.51506         0.008118     -0.016946      0.020173
      1.47458      9.50839      1.49101        -0.003297      0.002707     -0.002998
      1.33453      1.24728      4.26027         0.010803      0.027224     -0.014397
      6.78286      4.24080      6.75937         0.027103     -0.002671     -0.019929
      9.72037      4.20760      9.75805         0.003377     -0.000027      0.011862
      4.19173      6.76204      6.83184        -0.006295     -0.032126      0.001867
      4.07291      9.58409      4.01531         0.007526      0.008058     -0.027888
      9.57215      1.49525      1.45024        -0.007210     -0.002481      0.007512
      9.53067      6.98440      7.01971         0.004574     -0.010112      0.003585
      4.26372      1.27125      1.26792         0.020986      0.015684     -0.002844
      9.75482      9.77284      4.23708         0.006204      0.014785     -0.021319
      3.99995      4.01710      9.54794         0.000375     -0.002534      0.007130
 -----------------------------------------------------------------------------------
    total drift:                               -0.000229     -0.000782      0.000139


--------------------------------------------------------------------------------------------------------



  FREE ENERGIE OF THE ION-ELECTRON SYSTEM (eV)
  ---------------------------------------------------
  free  energy   TOTEN  =      -218.22185426 eV

  energy  without entropy=     -218.22185426  energy(sigma->0) =     -218.22185426
 


--------------------------------------------------------------------------------------------------------


    POTLOK:  cpu time    0.40: real time    0.41


--------------------------------------------------------------------------------------------------------


 writing wavefunctions
     LOOP+:  cpu time 2154.84: real time 3138.59
    4ORBIT:  cpu time    0.00: real time    0.00
 


 total charge     
 
# of ion     s       p       d       tot
----------------------------------------
  1        0.410   0.285   9.562  10.257
  2        0.410   0.285   9.562  10.257
  3        0.410   0.285   9.562  10.257
  4        0.430   0.290   9.560  10.281
  5        0.410   0.285   9.561  10.257
  6        0.410   0.285   9.561  10.257
  7        0.430   0.292   9.560  10.283
  8        0.410   0.284   9.562  10.256
  9        0.722   0.586   9.946  11.254
 10        0.745   0.586   9.944  11.275
 11        0.719   0.595   9.949  11.264
 12        0.719   0.596   9.950  11.265
 13        0.722   0.600   9.952  11.274
 14        0.722   0.586   9.946  11.255
 15        0.722   0.586   9.946  11.254
 16        0.719   0.595   9.950  11.264
 17        0.745   0.587   9.944  11.276
 18        0.719   0.596   9.950  11.265
 19        0.745   0.586   9.944  11.275
 20        0.722   0.586   9.946  11.254
 21        0.719   0.597   9.950  11.266
 22        0.719   0.595   9.950  11.264
 23        0.722   0.586   9.946  11.255
 24        0.722   0.586   9.946  11.254
 25        1.097   0.396   9.886  11.379
 26        1.338   2.375   0.000   3.713
 27        1.339   2.374   0.000   3.713
 28        1.347   2.353   0.000   3.701
 29        1.338   2.378   0.000   3.715
 30        1.339   2.375   0.000   3.714
 31        1.338   2.375   0.000   3.713
 32        1.338   2.377   0.000   3.715
 33        1.347   2.354   0.000   3.701
 34        1.340   2.401   0.000   3.741
 35        1.338   2.375   0.000   3.713
 36        1.338   2.375   0.000   3.713
 37        1.339   2.402   0.000   3.742
 38        1.338   2.374   0.000   3.713
 39        1.338   2.375   0.000   3.713
 40        1.347   2.353   0.000   3.701
 41        1.339   2.374   0.000   3.713
 42        1.338   2.377   0.000   3.715
 43        1.339   2.375   0.000   3.714
 44        1.338   2.377   0.000   3.715
 45        1.348   2.351   0.000   3.699
 46        1.339   2.375   0.000   3.714
 47        1.338   2.375   0.000   3.713
 48        1.339   2.374   0.000   3.713
 49        1.338   2.375   0.000   3.713
 50        1.338   2.377   0.000   3.715
 51        1.348   2.352   0.000   3.700
 52        1.348   2.351   0.000   3.699
 53        1.338   2.377   0.000   3.715
 54        1.338   2.375   0.000   3.713
 55        1.338   2.375   0.000   3.713
 56        1.338   2.374   0.000   3.713
 57        1.338   2.375   0.000   3.713
------------------------------------------------
tot       58.911  88.066 245.534 392.511
 
 BZINTS: Fermi energy:  4.554297;508.000000 electrons
         Band energy:***********;  BLOECHL correction:  0.000000

 total amount of memory used by VASP on root node   352987. kBytes
========================================================================

   base      :      30000. kBytes
   nonl-proj :      77896. kBytes
   fftplans  :      18482. kBytes
   grid      :      32575. kBytes
   one-center:        233. kBytes
   wavefun   :     193801. kBytes
 
  
  
 General timing and accounting informations for this job:
 ========================================================
  
                  Total CPU time used (sec):     2251.525
                            User time (sec):     2175.992
                          System time (sec):       75.533
                         Elapsed time (sec):     7456.805
  
                   Maximum memory used (kb):      409372.
                   Average memory used (kb):           0.
  
                          Minor page faults:        50353
                          Major page faults:            6
                 Voluntary context switches:      6040439
