       N       E                     dE             d eps       ncg     rms          ort
SDA:   1     0.137081103639E+04    0.13708E+04   -0.50156E+04   720   0.125E+05 0.000E+00
DMP:   2     0.129825468242E+04   -0.72556E+02   -0.62644E+04   720   0.158E+05-0.281E+03
DMP:   3     0.539905159514E+04    0.41008E+04   -0.59857E+05   720   0.158E+06-0.227E+05
DMP:   4     0.663946236659E+04    0.12404E+04   -0.47088E+05   720   0.119E+06-0.316E+04
DMP:   5     0.959590335579E+04    0.29564E+04   -0.66199E+05   720   0.171E+06-0.137E+05
DMP:   6     0.108528094531E+05    0.12569E+04   -0.59292E+05   720   0.154E+06-0.153E+05
DMP:   7     0.886103812135E+04   -0.19918E+04   -0.45717E+05   720   0.122E+06-0.196E+05
DMP:   8     0.624955674397E+04   -0.26115E+04   -0.27730E+05   720   0.760E+05-0.174E+05
DMP:   9     0.426280665054E+04   -0.19868E+04   -0.16716E+05   720   0.479E+05-0.159E+05
DMP:  10     0.261158770603E+04   -0.16512E+04   -0.78574E+04   720   0.235E+05-0.102E+05
DMP:  11     0.157929460996E+04   -0.10323E+04   -0.34928E+04   720   0.112E+05-0.648E+04
DMP:  12     0.100563211210E+04   -0.57366E+03   -0.17632E+04   720   0.597E+04-0.410E+04
DMP:  13     0.712446108834E+03   -0.29319E+03   -0.12237E+04   720   0.416E+04-0.288E+04
DMP:  14     0.633146204986E+03   -0.79300E+02   -0.12389E+04   720   0.410E+04-0.262E+04
DMP:  15     0.766829605571E+03    0.13368E+03   -0.16285E+04   720   0.535E+04-0.335E+04
DMP:  16     0.100467663941E+04    0.23785E+03   -0.19987E+04   720   0.669E+04-0.444E+04
DMP:  17     0.123242043252E+04    0.22774E+03   -0.23254E+04   720   0.789E+04-0.544E+04
DMP:  18     0.144703324564E+04    0.21461E+03   -0.26803E+04   720   0.887E+04-0.568E+04
DMP:  19     0.181807879481E+04    0.37105E+03   -0.37895E+04   720   0.119E+05-0.623E+04
DMP:  20     0.230785251124E+04    0.48977E+03   -0.55232E+04   720   0.163E+05-0.662E+04
DMP:  21     0.293710236549E+04    0.62925E+03   -0.82426E+04   720   0.240E+05-0.886E+04
DMP:  22     0.269055422272E+04   -0.24655E+03   -0.74442E+04   720   0.222E+05-0.950E+04
DMP:  23     0.193552130433E+04   -0.75503E+03   -0.54251E+04   720   0.183E+05-0.124E+05
DMP:  24     0.168556036396E+04   -0.24996E+03   -0.39979E+04   720   0.140E+05-0.106E+05
DMP:  25     0.208830351385E+04    0.40274E+03   -0.36828E+04   720   0.128E+05-0.933E+04
DMP:  26     0.243254083244E+04    0.34424E+03   -0.36022E+04   720   0.124E+05-0.895E+04
DMP:  27     0.288855489138E+04    0.45601E+03   -0.39275E+04   720   0.130E+05-0.827E+04
DMP:  28     0.311760407839E+04    0.22905E+03   -0.37497E+04   720   0.118E+05-0.642E+04
DMP:  29     0.357074216442E+04    0.45314E+03   -0.50011E+04   720   0.154E+05-0.753E+04
DMP:  30     0.365258003858E+04    0.81838E+02   -0.59744E+04   720   0.188E+05-0.101E+05
DMP:  31     0.334495474522E+04   -0.30763E+03   -0.91937E+04   720   0.321E+05-0.239E+05
DMP:  32     0.335177940182E+04    0.68247E+01   -0.89093E+04   720   0.321E+05-0.256E+05
DMP:  33     0.372862032546E+04    0.37684E+03   -0.49715E+04   720   0.171E+05-0.122E+05
DMP:  34     0.384691205951E+04    0.11829E+03   -0.39353E+04   720   0.131E+05-0.866E+04
DMP:  35     0.400335287489E+04    0.15644E+03   -0.39909E+04   720   0.133E+05-0.874E+04
DMP:  36     0.399838658855E+04   -0.49663E+01   -0.40764E+04   720   0.138E+05-0.941E+04
DMP:  37     0.410563916384E+04    0.10725E+03   -0.42359E+04   720   0.146E+05-0.104E+05
DMP:  38     0.406186418486E+04   -0.43775E+02   -0.41707E+04   720   0.145E+05-0.107E+05
DMP:  39     0.408151677169E+04    0.19653E+02   -0.44549E+04   720   0.159E+05-0.124E+05
DMP:  40     0.402941585870E+04   -0.52101E+02   -0.44173E+04   720   0.159E+05-0.127E+05
DMP:  41     0.410523094906E+04    0.75815E+02   -0.46382E+04   720   0.167E+05-0.134E+05
DMP:  42     0.407194069679E+04   -0.33290E+02   -0.43549E+04   720   0.157E+05-0.125E+05
DMP:  43     0.411998902212E+04    0.48048E+02   -0.47209E+04   720   0.171E+05-0.140E+05
DMP:  44     0.411528573469E+04   -0.47033E+01   -0.48599E+04   720   0.177E+05-0.145E+05
DMP:  45     0.422753168889E+04    0.11225E+03   -0.46227E+04   720   0.167E+05-0.135E+05
DMP:  46     0.421028982211E+04   -0.17242E+02   -0.45535E+04   720   0.165E+05-0.133E+05
DMP:  47     0.421365181680E+04    0.33620E+01   -0.48042E+04   720   0.175E+05-0.144E+05
DMP:  48     0.416666699971E+04   -0.46985E+02   -0.45314E+04   720   0.167E+05-0.139E+05
DMP:  49     0.427090540452E+04    0.10424E+03   -0.47379E+04   720   0.173E+05-0.142E+05
DMP:  50     0.428101435623E+04    0.10109E+02   -0.48009E+04   720   0.175E+05-0.144E+05
DMP:  51     0.436928990333E+04    0.88276E+02   -0.45727E+04   720   0.166E+05-0.134E+05
DMP:  52     0.431392930800E+04   -0.55361E+02   -0.44218E+04   720   0.161E+05-0.132E+05
DMP:  53     0.438302430683E+04    0.69095E+02   -0.46042E+04   720   0.168E+05-0.137E+05
DMP:  54     0.438581670821E+04    0.27924E+01   -0.46530E+04   720   0.169E+05-0.139E+05
DMP:  55     0.441647648189E+04    0.30660E+02   -0.47596E+04   720   0.174E+05-0.144E+05
DMP:  56     0.436784118925E+04   -0.48635E+02   -0.45158E+04   720   0.165E+05-0.137E+05
DMP:  57     0.445522671700E+04    0.87386E+02   -0.45740E+04   720   0.166E+05-0.136E+05
DMP:  58     0.442113445713E+04   -0.34092E+02   -0.40298E+04   720   0.146E+05-0.120E+05
DMP:  59     0.446937649500E+04    0.48242E+02   -0.45205E+04   720   0.165E+05-0.136E+05
DMP:  60     0.446266177879E+04   -0.67147E+01   -0.43518E+04   720   0.159E+05-0.131E+05
   1 F= 0.44626618E+04 E0= 0.44628329E+04  d E =0.446266E+04
       N       E                     dE             d eps       ncg     rms          ort
SDA:   1     0.503849363033E+04    0.56912E+03   -0.10455E+05   720   0.261E+05 0.000E+00
DMP:   2     0.764274741523E+04    0.26043E+04   -0.27765E+05   720   0.740E+05-0.120E+05
DMP:   3     0.745281220920E+04   -0.18994E+03   -0.40134E+05   720   0.102E+06-0.420E+04
DMP:   4     0.431309178949E+04   -0.31397E+04   -0.31071E+05   720   0.793E+05-0.419E+04
DMP:   5     0.877405887255E+04    0.44610E+04   -0.55985E+05   720   0.146E+06-0.151E+05
DMP:   6     0.862439453691E+04   -0.14966E+03   -0.46206E+05   720   0.122E+06-0.164E+05
DMP:   7     0.681866492068E+04   -0.18057E+04   -0.34394E+05   720   0.930E+05-0.183E+05
DMP:   8     0.547289479950E+04   -0.13458E+04   -0.25068E+05   720   0.695E+05-0.178E+05
DMP:   9     0.398737041248E+04   -0.14855E+04   -0.15403E+05   720   0.445E+05-0.156E+05
DMP:  10     0.268937675103E+04   -0.12980E+04   -0.85021E+04   720   0.258E+05-0.119E+05
DMP:  11     0.178051124612E+04   -0.90887E+03   -0.44453E+04   720   0.144E+05-0.851E+04
DMP:  12     0.131497647682E+04   -0.46553E+03   -0.28423E+04   720   0.950E+04-0.626E+04
DMP:  13     0.122601596360E+04   -0.88961E+02   -0.23772E+04   720   0.786E+04-0.502E+04
DMP:  14     0.135066965788E+04    0.12465E+03   -0.25606E+04   720   0.841E+04-0.525E+04
DMP:  15     0.166663291741E+04    0.31596E+03   -0.33885E+04   720   0.109E+05-0.643E+04
DMP:  16     0.206333802823E+04    0.39671E+03   -0.44376E+04   720   0.138E+05-0.711E+04
DMP:  17     0.261612233449E+04    0.55278E+03   -0.64051E+04   720   0.191E+05-0.805E+04
DMP:  18     0.310292837734E+04    0.48681E+03   -0.85376E+04   720   0.250E+05-0.953E+04
DMP:  19     0.299319746904E+04   -0.10973E+03   -0.81290E+04   720   0.246E+05-0.113E+05
DMP:  20     0.269012960963E+04   -0.30307E+03   -0.69253E+04   720   0.225E+05-0.136E+05
DMP:  21     0.288054623991E+04    0.19042E+03   -0.59434E+04   720   0.195E+05-0.123E+05
DMP:  22     0.318654815146E+04    0.30600E+03   -0.50065E+04   720   0.164E+05-0.101E+05
DMP:  23     0.353024201678E+04    0.34369E+03   -0.48799E+04   720   0.155E+05-0.855E+04
DMP:  24     0.381991047732E+04    0.28967E+03   -0.49995E+04   720   0.154E+05-0.768E+04
DMP:  25     0.411194852232E+04    0.29204E+03   -0.53968E+04   720   0.168E+05-0.855E+04
DMP:  26     0.421681634419E+04    0.10487E+03   -0.50097E+04   720   0.156E+05-0.812E+04
DMP:  27     0.439898386959E+04    0.18217E+03   -0.50912E+04   720   0.163E+05-0.943E+04
DMP:  28     0.445401675934E+04    0.55033E+02   -0.45931E+04   720   0.148E+05-0.880E+04
DMP:  29     0.462012154777E+04    0.16610E+03   -0.46788E+04   720   0.155E+05-0.983E+04
DMP:  30     0.469939091839E+04    0.79269E+02   -0.41483E+04   720   0.137E+05-0.863E+04
DMP:  31     0.482147594288E+04    0.12209E+03   -0.41416E+04   720   0.138E+05-0.896E+04
DMP:  32     0.485882153870E+04    0.37346E+02   -0.39076E+04   720   0.131E+05-0.874E+04
DMP:  33     0.493754583157E+04    0.78724E+02   -0.39240E+04   720   0.132E+05-0.895E+04
DMP:  34     0.494588989524E+04    0.83441E+01   -0.37500E+04   720   0.127E+05-0.876E+04
DMP:  35     0.498383667430E+04    0.37947E+02   -0.38344E+04   720   0.132E+05-0.946E+04
DMP:  36     0.492786430069E+04   -0.55972E+02   -0.37383E+04   720   0.130E+05-0.957E+04
DMP:  37     0.501801400750E+04    0.90150E+02   -0.44445E+04   720   0.156E+05-0.117E+05
DMP:  38     0.492934575150E+04   -0.88668E+02   -0.37941E+04   720   0.134E+05-0.102E+05
DMP:  39     0.492532209837E+04   -0.40237E+01   -0.41574E+04   720   0.149E+05-0.117E+05
DMP:  40     0.491995536316E+04   -0.53667E+01   -0.36369E+04   720   0.129E+05-0.998E+04
DMP:  41     0.505564312425E+04    0.13569E+03   -0.40705E+04   720   0.144E+05-0.111E+05
DMP:  42     0.498406844531E+04   -0.71575E+02   -0.34435E+04   720   0.122E+05-0.931E+04
DMP:  43     0.498749942248E+04    0.34310E+01   -0.48962E+04   720   0.177E+05-0.142E+05
DMP:  44     0.493364303864E+04   -0.53856E+02   -0.36056E+04   720   0.129E+05-0.102E+05
DMP:  45     0.499782445243E+04    0.64181E+02   -0.38607E+04   720   0.139E+05-0.110E+05
DMP:  46     0.503942236723E+04    0.41598E+02   -0.28786E+04   720   0.101E+05-0.760E+04
DMP:  47     0.509816806882E+04    0.58746E+02   -0.32465E+04   720   0.114E+05-0.870E+04
DMP:  48     0.494752428510E+04   -0.15064E+03   -0.36673E+04   720   0.131E+05-0.103E+05
DMP:  49     0.496757331083E+04    0.20049E+02   -0.36783E+04   720   0.132E+05-0.105E+05
DMP:  50     0.502005512718E+04    0.52482E+02   -0.33995E+04   720   0.121E+05-0.943E+04
DMP:  51     0.508221979122E+04    0.62165E+02   -0.31201E+04   720   0.111E+05-0.858E+04
DMP:  52     0.502075965701E+04   -0.61460E+02   -0.33257E+04   720   0.119E+05-0.949E+04
DMP:  53     0.505902162538E+04    0.38262E+02   -0.36981E+04   720   0.133E+05-0.105E+05
DMP:  54     0.497249579357E+04   -0.86526E+02   -0.31058E+04   720   0.112E+05-0.907E+04
DMP:  55     0.509558195179E+04    0.12309E+03   -0.34986E+04   720   0.126E+05-0.100E+05
DMP:  56     0.508494924053E+04   -0.10633E+02   -0.28033E+04   720   0.100E+05-0.792E+04
DMP:  57     0.511789699902E+04    0.32948E+02   -0.33396E+04   720   0.121E+05-0.970E+04
DMP:  58     0.509405350967E+04   -0.23843E+02   -0.23991E+04   720   0.851E+04-0.658E+04
DMP:  59     0.511374417219E+04    0.19691E+02   -0.28389E+04   720   0.102E+05-0.806E+04
DMP:  60     0.504190304784E+04   -0.71841E+02   -0.35155E+04   720   0.128E+05-0.104E+05
   2 F= 0.50419030E+04 E0= 0.50420412E+04  d E =0.579241E+03
       N       E                     dE             d eps       ncg     rms          ort
SDA:   1     0.114715732371E+05    0.63578E+04   -0.15190E+05   720   0.380E+05 0.000E+00
DMP:   2     0.989437610517E+04   -0.15772E+04   -0.25932E+05   720   0.656E+05-0.190E+04
DMP:   3     0.104331600717E+05    0.53878E+03   -0.42499E+05   720   0.110E+06-0.913E+04
DMP:   4     0.802395511994E+04   -0.24092E+04   -0.49524E+05   720   0.125E+06-0.293E+04
DMP:   5     0.921419971578E+04    0.11902E+04   -0.57586E+05   720   0.148E+06-0.933E+04
DMP:   6     0.959015569674E+04    0.37596E+03   -0.49238E+05   720   0.128E+06-0.138E+05
DMP:   7     0.887216691091E+04   -0.71799E+03   -0.41861E+05   720   0.112E+06-0.197E+05
DMP:   8     0.737475944205E+04   -0.14974E+04   -0.30818E+05   720   0.848E+05-0.203E+05
DMP:   9     0.590483768650E+04   -0.14699E+04   -0.22486E+05   720   0.647E+05-0.223E+05
DMP:  10     0.433486875793E+04   -0.15700E+04   -0.14156E+05   720   0.431E+05-0.203E+05
DMP:  11     0.306793199683E+04   -0.12669E+04   -0.86100E+04   720   0.278E+05-0.165E+05
DMP:  12     0.234259425909E+04   -0.72534E+03   -0.64188E+04   720   0.215E+05-0.143E+05
DMP:  13     0.224409253989E+04   -0.98502E+02   -0.57498E+04   720   0.189E+05-0.118E+05
DMP:  14     0.256033892795E+04    0.31625E+03   -0.58697E+04   720   0.188E+05-0.108E+05
DMP:  15     0.290541882098E+04    0.34508E+03   -0.62729E+04   720   0.197E+05-0.106E+05
DMP:  16     0.332936613609E+04    0.42395E+03   -0.79975E+04   720   0.249E+05-0.129E+05
DMP:  17     0.360494533863E+04    0.27558E+03   -0.93583E+04   720   0.292E+05-0.152E+05
DMP:  18     0.340342042784E+04   -0.20152E+03   -0.10123E+05   720   0.331E+05-0.204E+05
DMP:  19     0.317476684383E+04   -0.22865E+03   -0.10105E+05   720   0.346E+05-0.244E+05
DMP:  20     0.360625732702E+04    0.43149E+03   -0.90415E+04   720   0.309E+05-0.218E+05
DMP:  21     0.435809314440E+04    0.75184E+03   -0.60355E+04   720   0.197E+05-0.120E+05
DMP:  22     0.475990386738E+04    0.40181E+03   -0.57887E+04   720   0.188E+05-0.113E+05
DMP:  23     0.501751090699E+04    0.25761E+03   -0.62546E+04   720   0.203E+05-0.122E+05
DMP:  24     0.522996609217E+04    0.21246E+03   -0.62994E+04   720   0.208E+05-0.132E+05
DMP:  25     0.515805378579E+04   -0.71912E+02   -0.57174E+04   720   0.197E+05-0.143E+05
DMP:  26     0.527309196093E+04    0.11504E+03   -0.53450E+04   720   0.187E+05-0.139E+05
DMP:  27     0.545803170174E+04    0.18494E+03   -0.42537E+04   720   0.146E+05-0.104E+05
DMP:  28     0.553051518738E+04    0.72483E+02   -0.39148E+04   720   0.135E+05-0.984E+04
DMP:  29     0.560910923294E+04    0.78594E+02   -0.36444E+04   720   0.126E+05-0.911E+04
DMP:  30     0.566308392566E+04    0.53975E+02   -0.34703E+04   720   0.120E+05-0.882E+04
DMP:  31     0.568489370052E+04    0.21810E+02   -0.32823E+04   720   0.115E+05-0.852E+04
DMP:  32     0.563643653463E+04   -0.48457E+02   -0.33977E+04   720   0.120E+05-0.914E+04
DMP:  33     0.556684946500E+04   -0.69587E+02   -0.47675E+04   720   0.172E+05-0.138E+05
DMP:  34     0.554433113374E+04   -0.22518E+02   -0.37460E+04   720   0.135E+05-0.107E+05
DMP:  35     0.559505847359E+04    0.50727E+02   -0.33042E+04   720   0.119E+05-0.953E+04
DMP:  36     0.564807375607E+04    0.53015E+02   -0.30746E+04   720   0.110E+05-0.865E+04
DMP:  37     0.564513669015E+04   -0.29371E+01   -0.30205E+04   720   0.108E+05-0.849E+04
DMP:  38     0.568135786869E+04    0.36221E+02   -0.29040E+04   720   0.103E+05-0.808E+04
DMP:  39     0.566328481284E+04   -0.18073E+02   -0.38993E+04   720   0.141E+05-0.113E+05
DMP:  40     0.562948252105E+04   -0.33802E+02   -0.28104E+04   720   0.101E+05-0.802E+04
DMP:  41     0.558679818175E+04   -0.42684E+02   -0.40907E+04   720   0.150E+05-0.125E+05
DMP:  42     0.558577437394E+04   -0.10238E+01   -0.29243E+04   720   0.107E+05-0.877E+04
DMP:  43     0.563011714819E+04    0.44343E+02   -0.28851E+04   720   0.105E+05-0.865E+04
DMP:  44     0.571009513791E+04    0.79978E+02   -0.26071E+04   720   0.939E+04-0.751E+04
DMP:  45     0.568475279873E+04   -0.25342E+02   -0.24707E+04   720   0.887E+04-0.705E+04
DMP:  46     0.570666866618E+04    0.21916E+02   -0.23405E+04   720   0.837E+04-0.660E+04
DMP:  47     0.572974246053E+04    0.23074E+02   -0.23042E+04   720   0.824E+04-0.648E+04
DMP:  48     0.575025306364E+04    0.20511E+02   -0.21885E+04   720   0.782E+04-0.616E+04
DMP:  49     0.574523600564E+04   -0.50171E+01   -0.22134E+04   720   0.790E+04-0.619E+04
DMP:  50     0.577500113783E+04    0.29765E+02   -0.22851E+04   720   0.817E+04-0.642E+04
DMP:  51     0.577835807208E+04    0.33569E+01   -0.23237E+04   720   0.834E+04-0.662E+04
DMP:  52     0.581629308247E+04    0.37935E+02   -0.22253E+04   720   0.796E+04-0.629E+04
DMP:  53     0.579660657700E+04   -0.19687E+02   -0.21779E+04   720   0.780E+04-0.618E+04
DMP:  54     0.581249721788E+04    0.15891E+02   -0.21939E+04   720   0.784E+04-0.616E+04
DMP:  55     0.581133165710E+04   -0.11656E+01   -0.22692E+04   720   0.812E+04-0.640E+04
DMP:  56     0.579752078628E+04   -0.13811E+02   -0.23017E+04   720   0.832E+04-0.671E+04
DMP:  57     0.582857822039E+04    0.31057E+02   -0.22740E+04   720   0.821E+04-0.662E+04
DMP:  58     0.583708149077E+04    0.85033E+01   -0.20889E+04   720   0.748E+04-0.591E+04
DMP:  59     0.579524071984E+04   -0.41841E+02   -0.21571E+04   720   0.775E+04-0.616E+04
DMP:  60     0.583263004301E+04    0.37389E+02   -0.24395E+04   720   0.876E+04-0.698E+04
   3 F= 0.58326300E+04 E0= 0.58327834E+04  d E =0.136997E+04
       N       E                     dE             d eps       ncg     rms          ort
SDA:   1     0.763084638077E+04    0.18356E+04   -0.13360E+05   720   0.334E+05 0.000E+00
DMP:   2     0.105125949779E+05    0.28817E+04   -0.27983E+05   720   0.776E+05-0.199E+05
DMP:   3     0.875223749616E+04   -0.17604E+04   -0.39156E+05   720   0.104E+06-0.163E+05
DMP:   4     0.397343144270E+04   -0.47788E+04   -0.23350E+05   720   0.641E+05-0.150E+05
DMP:   5     0.792443349192E+04    0.39510E+04   -0.55233E+05   720   0.146E+06-0.203E+05
DMP:   6     0.798405617872E+04    0.59623E+02   -0.44607E+05   720   0.117E+06-0.151E+05
DMP:   7     0.775963160255E+04   -0.22442E+03   -0.41531E+05   720   0.111E+06-0.192E+05
DMP:   8     0.700044249961E+04   -0.75919E+03   -0.33792E+05   720   0.929E+05-0.219E+05
DMP:   9     0.523908750312E+04   -0.17614E+04   -0.21950E+05   720   0.624E+05-0.198E+05
DMP:  10     0.360658268549E+04   -0.16325E+04   -0.12450E+05   720   0.378E+05-0.174E+05
DMP:  11     0.229718887986E+04   -0.13094E+04   -0.62365E+04   720   0.204E+05-0.125E+05
DMP:  12     0.141766288216E+04   -0.87953E+03   -0.32727E+04   720   0.114E+05-0.852E+04
DMP:  13     0.113174028305E+04   -0.28592E+03   -0.28361E+04   720   0.969E+04-0.681E+04
DMP:  14     0.129050151514E+04    0.15876E+03   -0.30432E+04   720   0.991E+04-0.602E+04
DMP:  15     0.160467932238E+04    0.31418E+03   -0.35440E+04   720   0.117E+05-0.736E+04
DMP:  16     0.195106989831E+04    0.34639E+03   -0.45773E+04   720   0.149E+05-0.911E+04
DMP:  17     0.243953549596E+04    0.48847E+03   -0.57010E+04   720   0.177E+05-0.898E+04
DMP:  18     0.305889584597E+04    0.61936E+03   -0.79717E+04   720   0.240E+05-0.106E+05
DMP:  19     0.317419150015E+04    0.11530E+03   -0.85715E+04   720   0.264E+05-0.131E+05
DMP:  20     0.244658880378E+04   -0.72760E+03   -0.72466E+04   720   0.244E+05-0.166E+05
DMP:  21     0.221319197187E+04   -0.23340E+03   -0.66111E+04   720   0.235E+05-0.183E+05
DMP:  22     0.290042523849E+04    0.68723E+03   -0.64747E+04   720   0.219E+05-0.150E+05
DMP:  23     0.370436398208E+04    0.80394E+03   -0.56938E+04   720   0.191E+05-0.127E+05
DMP:  24     0.421146039548E+04    0.50710E+03   -0.57360E+04   720   0.185E+05-0.109E+05
DMP:  25     0.463671791159E+04    0.42526E+03   -0.68805E+04   720   0.218E+05-0.120E+05
DMP:  26     0.474398765845E+04    0.10727E+03   -0.72104E+04   720   0.233E+05-0.138E+05
DMP:  27     0.443024329263E+04   -0.31374E+03   -0.89385E+04   720   0.305E+05-0.213E+05
DMP:  28     0.437158389291E+04   -0.58659E+02   -0.84423E+04   720   0.301E+05-0.234E+05
DMP:  29     0.488064275287E+04    0.50906E+03   -0.56382E+04   720   0.197E+05-0.146E+05
DMP:  30     0.501857581475E+04    0.13793E+03   -0.34538E+04   720   0.115E+05-0.761E+04
DMP:  31     0.517271307590E+04    0.15414E+03   -0.41548E+04   720   0.142E+05-0.999E+04
DMP:  32     0.518520525292E+04    0.12492E+02   -0.31672E+04   720   0.106E+05-0.695E+04
DMP:  33     0.520140398500E+04    0.16199E+02   -0.39848E+04   720   0.139E+05-0.104E+05
DMP:  34     0.523225462739E+04    0.30851E+02   -0.34609E+04   720   0.120E+05-0.880E+04
DMP:  35     0.515073974133E+04   -0.81515E+02   -0.38103E+04   720   0.136E+05-0.106E+05
DMP:  36     0.497807101107E+04   -0.17267E+03   -0.32241E+04   720   0.116E+05-0.938E+04
DMP:  37     0.510654891996E+04    0.12848E+03   -0.34574E+04   720   0.124E+05-0.984E+04
DMP:  38     0.502228227808E+04   -0.84267E+02   -0.35747E+04   720   0.130E+05-0.106E+05
DMP:  39     0.516152221399E+04    0.13924E+03   -0.34107E+04   720   0.122E+05-0.960E+04
DMP:  40     0.507536589670E+04   -0.86156E+02   -0.31087E+04   720   0.111E+05-0.884E+04
DMP:  41     0.514763706662E+04    0.72271E+02   -0.33149E+04   720   0.119E+05-0.942E+04
DMP:  42     0.511095905504E+04   -0.36678E+02   -0.26194E+04   720   0.930E+04-0.721E+04
DMP:  43     0.512036551594E+04    0.94065E+01   -0.32165E+04   720   0.116E+05-0.945E+04
DMP:  44     0.511900334757E+04   -0.13622E+01   -0.25796E+04   720   0.921E+04-0.723E+04
DMP:  45     0.515567577740E+04    0.36672E+02   -0.39828E+04   720   0.144E+05-0.116E+05
DMP:  46     0.504485607159E+04   -0.11082E+03   -0.33168E+04   720   0.122E+05-0.103E+05
DMP:  47     0.513001767049E+04    0.85162E+02   -0.31976E+04   720   0.116E+05-0.954E+04
DMP:  48     0.512432446246E+04   -0.56932E+01   -0.24740E+04   720   0.889E+04-0.708E+04
DMP:  49     0.518393516355E+04    0.59611E+02   -0.28789E+04   720   0.104E+05-0.844E+04
DMP:  50     0.513299501388E+04   -0.50940E+02   -0.26249E+04   720   0.947E+04-0.761E+04
DMP:  51     0.519631073199E+04    0.63316E+02   -0.28871E+04   720   0.105E+05-0.851E+04
DMP:  52     0.512964861660E+04   -0.66662E+02   -0.26395E+04   720   0.964E+04-0.795E+04
DMP:  53     0.519200941723E+04    0.62361E+02   -0.27341E+04   720   0.991E+04-0.805E+04
DMP:  54     0.517223459693E+04   -0.19775E+02   -0.24047E+04   720   0.870E+04-0.705E+04
DMP:  55     0.524189037120E+04    0.69656E+02   -0.29158E+04   720   0.107E+05-0.883E+04
DMP:  56     0.518471313712E+04   -0.57177E+02   -0.25234E+04   720   0.925E+04-0.771E+04
DMP:  57     0.528141683908E+04    0.96704E+02   -0.25389E+04   720   0.918E+04-0.741E+04
DMP:  58     0.525619058468E+04   -0.25226E+02   -0.21086E+04   720   0.758E+04-0.604E+04
DMP:  59     0.533323730116E+04    0.77047E+02   -0.24720E+04   720   0.891E+04-0.714E+04
DMP:  60     0.526763545484E+04   -0.65602E+02   -0.21258E+04   720   0.766E+04-0.613E+04
   4 F= 0.52676355E+04 E0= 0.52678326E+04  d E =0.804974E+03
       N       E                     dE             d eps       ncg     rms          ort
SDA:   1     0.550104214131E+04    0.16780E+03   -0.86052E+04   720   0.215E+05 0.000E+00
DMP:   2     0.991971511908E+04    0.44187E+04   -0.20162E+05   720   0.553E+05-0.128E+05
DMP:   3     0.807802837298E+04   -0.18417E+04   -0.34647E+05   720   0.921E+05-0.143E+05
DMP:   4     0.406265630438E+04   -0.40154E+04   -0.27000E+05   720   0.721E+05-0.120E+05
DMP:   5     0.820761885556E+04    0.41450E+04   -0.52644E+05   720   0.138E+06-0.171E+05
DMP:   6     0.851522849626E+04    0.30761E+03   -0.45475E+05   720   0.120E+06-0.158E+05
DMP:   7     0.736856837968E+04   -0.11467E+04   -0.38051E+05   720   0.102E+06-0.187E+05
DMP:   8     0.638445659676E+04   -0.98411E+03   -0.29099E+05   720   0.805E+05-0.204E+05
DMP:   9     0.487993247680E+04   -0.15045E+04   -0.19973E+05   720   0.576E+05-0.200E+05
DMP:  10     0.341836515107E+04   -0.14616E+04   -0.11277E+05   720   0.345E+05-0.166E+05
DMP:  11     0.221993440067E+04   -0.11984E+04   -0.59037E+04   720   0.195E+05-0.124E+05
DMP:  12     0.150034906230E+04   -0.71959E+03   -0.39197E+04   720   0.136E+05-0.101E+05
DMP:  13     0.140687646715E+04   -0.93473E+02   -0.36588E+04   720   0.122E+05-0.789E+04
DMP:  14     0.176613466884E+04    0.35926E+03   -0.41703E+04   720   0.134E+05-0.776E+04
DMP:  15     0.213024980540E+04    0.36412E+03   -0.48582E+04   720   0.155E+05-0.881E+04
DMP:  16     0.255910084642E+04    0.42885E+03   -0.63804E+04   720   0.198E+05-0.100E+05
DMP:  17     0.288325318049E+04    0.32415E+03   -0.83986E+04   720   0.258E+05-0.125E+05
DMP:  18     0.259401930874E+04   -0.28923E+03   -0.81426E+04   720   0.264E+05-0.159E+05
DMP:  19     0.203793754133E+04   -0.55608E+03   -0.66158E+04   720   0.234E+05-0.179E+05
DMP:  20     0.221749016378E+04    0.17955E+03   -0.76326E+04   720   0.266E+05-0.197E+05
DMP:  21     0.336753232727E+04    0.11500E+04   -0.65960E+04   720   0.219E+05-0.142E+05
DMP:  22     0.417218339246E+04    0.80465E+03   -0.56886E+04   720   0.187E+05-0.118E+05
DMP:  23     0.431919146488E+04    0.14701E+03   -0.62143E+04   720   0.200E+05-0.118E+05
DMP:  24     0.429567276454E+04   -0.23519E+02   -0.92047E+04   720   0.306E+05-0.198E+05
DMP:  25     0.342506534330E+04   -0.87061E+03   -0.84197E+04   720   0.304E+05-0.245E+05
DMP:  26     0.257143247684E+04   -0.85363E+03   -0.75170E+04   720   0.297E+05-0.286E+05
DMP:  27     0.342637885863E+04    0.85495E+03   -0.85190E+04   720   0.305E+05-0.240E+05
DMP:  28     0.506193777665E+04    0.16356E+04   -0.55170E+04   720   0.191E+05-0.138E+05
DMP:  29     0.536628241883E+04    0.30434E+03   -0.42688E+04   720   0.152E+05-0.119E+05
DMP:  30     0.535601200273E+04   -0.10270E+02   -0.33860E+04   720   0.113E+05-0.732E+04
DMP:  31     0.554307169030E+04    0.18706E+03   -0.52267E+04   720   0.172E+05-0.109E+05
DMP:  32     0.520115308507E+04   -0.34192E+03   -0.75935E+04   720   0.268E+05-0.205E+05
DMP:  33     0.475724744148E+04   -0.44391E+03   -0.10004E+05   720   0.372E+05-0.319E+05
DMP:  34     0.469558992138E+04   -0.61658E+02   -0.11279E+05   720   0.421E+05-0.363E+05
DMP:  35     0.503903883567E+04    0.34345E+03   -0.60067E+04   720   0.221E+05-0.184E+05
DMP:  36     0.551980192017E+04    0.48076E+03   -0.36398E+04   720   0.127E+05-0.954E+04
DMP:  37     0.550870768115E+04   -0.11094E+02   -0.41682E+04   720   0.148E+05-0.115E+05
DMP:  38     0.549783344167E+04   -0.10874E+02   -0.49857E+04   720   0.180E+05-0.145E+05
DMP:  39     0.552860069511E+04    0.30767E+02   -0.46821E+04   720   0.169E+05-0.135E+05
DMP:  40     0.551626346934E+04   -0.12337E+02   -0.42959E+04   720   0.155E+05-0.125E+05
DMP:  41     0.554045068947E+04    0.24187E+02   -0.47518E+04   720   0.173E+05-0.142E+05
DMP:  42     0.544952511487E+04   -0.90926E+02   -0.50470E+04   720   0.185E+05-0.154E+05
DMP:  43     0.552136726892E+04    0.71842E+02   -0.52329E+04   720   0.192E+05-0.159E+05
DMP:  44     0.546497513015E+04   -0.56392E+02   -0.50705E+04   720   0.185E+05-0.152E+05
DMP:  45     0.552704274470E+04    0.62068E+02   -0.49383E+04   720   0.180E+05-0.149E+05
DMP:  46     0.545297821603E+04   -0.74065E+02   -0.53170E+04   720   0.196E+05-0.164E+05
DMP:  47     0.547926924811E+04    0.26291E+02   -0.55518E+04   720   0.205E+05-0.172E+05
DMP:  48     0.547588322246E+04   -0.33860E+01   -0.45566E+04   720   0.166E+05-0.137E+05
DMP:  49     0.548502260169E+04    0.91394E+01   -0.53240E+04   720   0.196E+05-0.163E+05
DMP:  50     0.541382132996E+04   -0.71201E+02   -0.51591E+04   720   0.191E+05-0.162E+05
DMP:  51     0.549090432901E+04    0.77083E+02   -0.53292E+04   720   0.195E+05-0.163E+05
DMP:  52     0.540144033256E+04   -0.89464E+02   -0.45395E+04   720   0.167E+05-0.139E+05
DMP:  53     0.545206018153E+04    0.50620E+02   -0.50421E+04   720   0.186E+05-0.156E+05
DMP:  54     0.537965579393E+04   -0.72404E+02   -0.44317E+04   720   0.162E+05-0.135E+05
DMP:  55     0.541758562650E+04    0.37930E+02   -0.54773E+04   720   0.201E+05-0.167E+05
DMP:  56     0.542318570042E+04    0.56001E+01   -0.40918E+04   720   0.149E+05-0.121E+05
DMP:  57     0.553720338076E+04    0.11402E+03   -0.43458E+04   720   0.158E+05-0.130E+05
DMP:  58     0.546011746803E+04   -0.77086E+02   -0.36949E+04   720   0.134E+05-0.109E+05
DMP:  59     0.556327696437E+04    0.10316E+03   -0.42747E+04   720   0.156E+05-0.127E+05
DMP:  60     0.552059470729E+04   -0.42682E+02   -0.33396E+04   720   0.120E+05-0.946E+04
   5 F= 0.55205947E+04 E0= 0.55207148E+04  d E =0.105793E+04
       N       E                     dE             d eps       ncg     rms          ort
SDA:   1     0.561773953699E+04    0.54463E+02   -0.13378E+05   720   0.334E+05 0.000E+00
DMP:   2     0.775841865259E+04    0.21407E+04   -0.43043E+05   720   0.111E+06-0.770E+04
DMP:   3     0.699469258859E+04   -0.76373E+03   -0.62821E+05   720   0.159E+06-0.463E+04
DMP:   4     0.493801432191E+04   -0.20567E+04   -0.38476E+05   720   0.959E+05 0.869E+03
DMP:   5     0.883633819630E+04    0.38983E+04   -0.58382E+05   720   0.150E+06-0.105E+05
DMP:   6     0.912990755628E+04    0.29357E+03   -0.52895E+05   720   0.138E+06-0.162E+05
DMP:   7     0.849947651474E+04   -0.63043E+03   -0.48885E+05   720   0.130E+06-0.197E+05
DMP:   8     0.790384139292E+04   -0.59564E+03   -0.39797E+05   720   0.107E+06-0.191E+05
DMP:   9     0.636630873138E+04   -0.15375E+04   -0.28729E+05   720   0.794E+05-0.200E+05
DMP:  10     0.476308020821E+04   -0.16032E+04   -0.18531E+05   720   0.532E+05-0.181E+05
DMP:  11     0.316597738397E+04   -0.15971E+04   -0.97617E+04   720   0.297E+05-0.138E+05
DMP:  12     0.180066931059E+04   -0.13653E+04   -0.42238E+04   720   0.141E+05-0.937E+04
DMP:  13     0.101686293037E+04   -0.78381E+03   -0.19753E+04   720   0.704E+04-0.550E+04
DMP:  14     0.694472472757E+03   -0.32239E+03   -0.16061E+04   720   0.555E+04-0.401E+04
DMP:  15     0.659202315845E+03   -0.35270E+02   -0.17775E+04   720   0.582E+04-0.361E+04
DMP:  16     0.845110361565E+03    0.18591E+03   -0.21816E+04   720   0.716E+04-0.447E+04
DMP:  17     0.107582822076E+04    0.23072E+03   -0.25071E+04   720   0.850E+04-0.585E+04
DMP:  18     0.137180098043E+04    0.29597E+03   -0.31705E+04   720   0.109E+05-0.791E+04
DMP:  19     0.175107771281E+04    0.37928E+03   -0.35525E+04   720   0.121E+05-0.838E+04
DMP:  20     0.236672078224E+04    0.61564E+03   -0.49810E+04   720   0.161E+05-0.966E+04
DMP:  21     0.295364994670E+04    0.58693E+03   -0.67152E+04   720   0.201E+05-0.856E+04
DMP:  22     0.352949120954E+04    0.57584E+03   -0.11360E+05   720   0.330E+05-0.120E+05
DMP:  23     0.270139718720E+04   -0.82809E+03   -0.80929E+04   720   0.245E+05-0.111E+05
DMP:  24     0.129167182715E+04   -0.14097E+04   -0.29466E+04   720   0.111E+05-0.988E+04
DMP:  25     0.708136113912E+03   -0.58354E+03   -0.17774E+04   720   0.727E+04-0.739E+04
DMP:  26     0.112438583814E+04    0.41625E+03   -0.27122E+04   720   0.912E+04-0.611E+04
DMP:  27     0.239466748431E+04    0.12703E+04   -0.75600E+04   720   0.247E+05-0.151E+05
DMP:  28     0.349862195705E+04    0.11040E+04   -0.71612E+04   720   0.250E+05-0.186E+05
DMP:  29     0.413117482987E+04    0.63255E+03   -0.43723E+04   720   0.150E+05-0.106E+05
DMP:  30     0.439164147871E+04    0.26047E+03   -0.44418E+04   720   0.138E+05-0.717E+04
DMP:  31     0.467732902299E+04    0.28569E+03   -0.47593E+04   720   0.142E+05-0.608E+04
DMP:  32     0.338899622230E+04   -0.12883E+04   -0.74112E+04   720   0.257E+05-0.188E+05
DMP:  33     0.203660228409E+04   -0.13524E+04   -0.43721E+04   720   0.178E+05-0.181E+05
DMP:  34     0.246388837553E+04    0.42729E+03   -0.72733E+04   720   0.271E+05-0.232E+05
DMP:  35     0.408568961597E+04    0.16218E+04   -0.69668E+04   720   0.244E+05-0.182E+05
DMP:  36     0.524853288886E+04    0.11628E+04   -0.33527E+04   720   0.114E+05-0.791E+04
DMP:  37     0.501511664729E+04   -0.23342E+03   -0.23489E+04   720   0.811E+04-0.586E+04
DMP:  38     0.522786338515E+04    0.21275E+03   -0.28127E+04   720   0.955E+04-0.658E+04
DMP:  39     0.509801865967E+04   -0.12984E+03   -0.21481E+04   720   0.696E+04-0.415E+04
DMP:  40     0.509337982610E+04   -0.46388E+01   -0.38750E+04   720   0.138E+05-0.107E+05
DMP:  41     0.506417738406E+04   -0.29202E+02   -0.34854E+04   720   0.123E+05-0.948E+04
DMP:  42     0.518706913308E+04    0.12289E+03   -0.33039E+04   720   0.119E+05-0.950E+04
DMP:  43     0.525387684486E+04    0.66808E+02   -0.27051E+04   720   0.951E+04-0.720E+04
DMP:  44     0.537296096061E+04    0.11908E+03   -0.25408E+04   720   0.894E+04-0.677E+04
DMP:  45     0.529248469251E+04   -0.80476E+02   -0.22061E+04   720   0.770E+04-0.571E+04
DMP:  46     0.540795771392E+04    0.11547E+03   -0.23564E+04   720   0.826E+04-0.621E+04
DMP:  47     0.536133547264E+04   -0.46622E+02   -0.22344E+04   720   0.777E+04-0.571E+04
DMP:  48     0.544944986787E+04    0.88114E+02   -0.23978E+04   720   0.844E+04-0.640E+04
DMP:  49     0.538233795241E+04   -0.67112E+02   -0.22099E+04   720   0.773E+04-0.577E+04
DMP:  50     0.546909864943E+04    0.86761E+02   -0.23966E+04   720   0.844E+04-0.641E+04
DMP:  51     0.541718210789E+04   -0.51917E+02   -0.24362E+04   720   0.858E+04-0.653E+04
DMP:  52     0.546457441661E+04    0.47392E+02   -0.26620E+04   720   0.947E+04-0.736E+04
DMP:  53     0.540918316064E+04   -0.55391E+02   -0.25130E+04   720   0.891E+04-0.689E+04
DMP:  54     0.545868229197E+04    0.49499E+02   -0.25906E+04   720   0.922E+04-0.719E+04
DMP:  55     0.542980526742E+04   -0.28877E+02   -0.27011E+04   720   0.959E+04-0.744E+04
DMP:  56     0.547781581748E+04    0.48011E+02   -0.28106E+04   720   0.100E+05-0.781E+04
DMP:  57     0.544922284985E+04   -0.28593E+02   -0.26773E+04   720   0.948E+04-0.730E+04
DMP:  58     0.546229822792E+04    0.13075E+02   -0.27254E+04   720   0.966E+04-0.746E+04
DMP:  59     0.535044539029E+04   -0.11185E+03   -0.26517E+04   720   0.951E+04-0.755E+04
DMP:  60     0.533080011472E+04   -0.19645E+02   -0.27669E+04   720   0.100E+05-0.808E+04
   6 F= 0.53308001E+04 E0= 0.53309368E+04  d E =0.868138E+03
       N       E                     dE             d eps       ncg     rms          ort
SDA:   1     0.540692685241E+04    0.56481E+02   -0.10348E+05   720   0.259E+05 0.000E+00
DMP:   2     0.794566593105E+04    0.25387E+04   -0.40294E+05   720   0.104E+06-0.790E+04
DMP:   3     0.679837728294E+04   -0.11473E+04   -0.58146E+05   720   0.146E+06-0.209E+04
DMP:   4     0.461988588276E+04   -0.21785E+04   -0.35735E+05   720   0.900E+05-0.182E+04
DMP:   5     0.863767811665E+04    0.40178E+04   -0.58320E+05   720   0.151E+06-0.124E+05
DMP:   6     0.917322111847E+04    0.53554E+03   -0.54189E+05   720   0.141E+06-0.152E+05
DMP:   7     0.844266750747E+04   -0.73055E+03   -0.48231E+05   720   0.128E+06-0.186E+05
DMP:   8     0.780727032849E+04   -0.63540E+03   -0.39750E+05   720   0.107E+06-0.196E+05
DMP:   9     0.637256631663E+04   -0.14347E+04   -0.28901E+05   720   0.797E+05-0.195E+05
DMP:  10     0.477106101414E+04   -0.16015E+04   -0.18893E+05   720   0.543E+05-0.184E+05
DMP:  11     0.314124183099E+04   -0.16298E+04   -0.97027E+04   720   0.294E+05-0.134E+05
DMP:  12     0.174286920957E+04   -0.13984E+04   -0.40372E+04   720   0.136E+05-0.910E+04
DMP:  13     0.959590988752E+03   -0.78328E+03   -0.18243E+04   720   0.656E+04-0.524E+04
DMP:  14     0.634948127916E+03   -0.32464E+03   -0.14673E+04   720   0.504E+04-0.359E+04
DMP:  15     0.585199905003E+03   -0.49748E+02   -0.16526E+04   720   0.540E+04-0.333E+04
DMP:  16     0.766733284622E+03    0.18153E+03   -0.20927E+04   720   0.684E+04-0.421E+04
DMP:  17     0.986436310221E+03    0.21970E+03   -0.23724E+04   720   0.803E+04-0.551E+04
DMP:  18     0.128231070379E+04    0.29587E+03   -0.29953E+04   720   0.104E+05-0.750E+04
DMP:  19     0.166936312102E+04    0.38705E+03   -0.34194E+04   720   0.118E+05-0.839E+04
DMP:  20     0.222579301571E+04    0.55643E+03   -0.43364E+04   720   0.145E+05-0.962E+04
DMP:  21     0.273108296869E+04    0.50529E+03   -0.54994E+04   720   0.170E+05-0.852E+04
DMP:  22     0.352730002409E+04    0.79622E+03   -0.10206E+05   720   0.295E+05-0.105E+05
DMP:  23     0.321322538430E+04   -0.31407E+03   -0.11410E+05   720   0.332E+05-0.121E+05
DMP:  24     0.147500377475E+04   -0.17382E+04   -0.33632E+04   720   0.115E+05-0.818E+04
DMP:  25     0.454885792968E+03   -0.10201E+04   -0.83906E+03   720   0.405E+04-0.511E+04
DMP:  26     0.384235639600E+03   -0.70650E+02   -0.15716E+04   720   0.572E+04-0.470E+04
DMP:  27     0.919106120184E+03    0.53487E+03   -0.28015E+04   720   0.893E+04-0.505E+04
DMP:  28     0.184112966080E+04    0.92202E+03   -0.51015E+04   720   0.172E+05-0.117E+05
DMP:  29     0.313423087475E+04    0.12931E+04   -0.74617E+04   720   0.254E+05-0.176E+05
DMP:  30     0.402926410914E+04    0.89503E+03   -0.50423E+04   720   0.176E+05-0.130E+05
DMP:  31     0.401610722735E+04   -0.13157E+02   -0.37971E+04   720   0.119E+05-0.624E+04
DMP:  32     0.450213368699E+04    0.48603E+03   -0.45161E+04   720   0.133E+05-0.536E+04
DMP:  33     0.333508096046E+04   -0.11671E+04   -0.78354E+04   720   0.253E+05-0.149E+05
DMP:  34     0.201580537172E+04   -0.13193E+04   -0.37099E+04   720   0.145E+05-0.136E+05
DMP:  35     0.184275505741E+04   -0.17305E+03   -0.54091E+04   720   0.207E+05-0.187E+05
DMP:  36     0.303628209812E+04    0.11935E+04   -0.80714E+04   720   0.294E+05-0.240E+05
DMP:  37     0.453921178471E+04    0.15029E+04   -0.26961E+04   720   0.911E+04-0.619E+04
DMP:  38     0.477398355806E+04    0.23477E+03   -0.20573E+04   720   0.732E+04-0.570E+04
DMP:  39     0.459231572319E+04   -0.18167E+03   -0.17704E+04   720   0.607E+04-0.430E+04
DMP:  40     0.487805016409E+04    0.28573E+03   -0.16452E+04   720   0.553E+04-0.372E+04
DMP:  41     0.467331320196E+04   -0.20474E+03   -0.15198E+04   720   0.517E+04-0.359E+04
DMP:  42     0.483654981929E+04    0.16324E+03   -0.17110E+04   720   0.594E+04-0.434E+04
DMP:  43     0.468920656188E+04   -0.14734E+03   -0.13773E+04   720   0.481E+04-0.359E+04
DMP:  44     0.481237388581E+04    0.12317E+03   -0.14521E+04   720   0.514E+04-0.396E+04
DMP:  45     0.470964197455E+04   -0.10273E+03   -0.12424E+04   720   0.438E+04-0.333E+04
DMP:  46     0.482678442775E+04    0.11714E+03   -0.12691E+04   720   0.447E+04-0.340E+04
DMP:  47     0.474130784033E+04   -0.85477E+02   -0.11462E+04   720   0.402E+04-0.302E+04
DMP:  48     0.485895239395E+04    0.11764E+03   -0.11891E+04   720   0.416E+04-0.311E+04
DMP:  49     0.478253270588E+04   -0.76420E+02   -0.10796E+04   720   0.376E+04-0.277E+04
DMP:  50     0.489160394394E+04    0.10907E+03   -0.11474E+04   720   0.399E+04-0.294E+04
DMP:  51     0.481056655531E+04   -0.81037E+02   -0.10739E+04   720   0.373E+04-0.274E+04
DMP:  52     0.490966837749E+04    0.99102E+02   -0.11577E+04   720   0.402E+04-0.296E+04
DMP:  53     0.484264106248E+04   -0.67027E+02   -0.11057E+04   720   0.383E+04-0.280E+04
DMP:  54     0.493674764209E+04    0.94107E+02   -0.11389E+04   720   0.395E+04-0.287E+04
DMP:  55     0.486543464708E+04   -0.71313E+02   -0.10977E+04   720   0.380E+04-0.277E+04
DMP:  56     0.494766201297E+04    0.82227E+02   -0.11492E+04   720   0.398E+04-0.291E+04
DMP:  57     0.487279259495E+04   -0.74869E+02   -0.11054E+04   720   0.382E+04-0.278E+04
DMP:  58     0.495924608222E+04    0.86453E+02   -0.11452E+04   720   0.396E+04-0.288E+04
DMP:  59     0.489334580544E+04   -0.65900E+02   -0.11252E+04   720   0.389E+04-0.283E+04
DMP:  60     0.496995802474E+04    0.76612E+02   -0.11576E+04   720   0.401E+04-0.292E+04
   7 F= 0.49699580E+04 E0= 0.49701267E+04  d E =0.507296E+03
       N       E                     dE             d eps       ncg     rms          ort
SDA:   1     0.490667245582E+04    0.13327E+02   -0.65520E+04   720   0.164E+05 0.000E+00
DMP:   2     0.933773829656E+04    0.44311E+04   -0.19804E+05   720   0.532E+05-0.971E+04
DMP:   3     0.929438145174E+04   -0.43357E+02   -0.54285E+05   720   0.140E+06-0.125E+05
DMP:   4     0.610843299613E+04   -0.31859E+04   -0.47837E+05   720   0.121E+06-0.446E+04
DMP:   5     0.125554097360E+05    0.64470E+04   -0.84142E+05   720   0.214E+06-0.877E+04
DMP:   6     0.938976448745E+04   -0.31656E+04   -0.53428E+05   720   0.138E+06-0.103E+05
DMP:   7     0.824672471341E+04   -0.11430E+04   -0.44910E+05   720   0.119E+06-0.168E+05
DMP:   8     0.744546029638E+04   -0.80126E+03   -0.36230E+05   720   0.982E+05-0.200E+05
DMP:   9     0.564005518097E+04   -0.18054E+04   -0.24898E+05   720   0.690E+05-0.177E+05
DMP:  10     0.442513606410E+04   -0.12149E+04   -0.17270E+05   720   0.494E+05-0.163E+05
DMP:  11     0.316813689950E+04   -0.12570E+04   -0.10048E+05   720   0.303E+05-0.135E+05
DMP:  12     0.192342475685E+04   -0.12447E+04   -0.48907E+04   720   0.160E+05-0.985E+04
DMP:  13     0.121148490146E+04   -0.71194E+03   -0.26281E+04   720   0.908E+04-0.657E+04
DMP:  14     0.930420268567E+03   -0.28106E+03   -0.21277E+04   720   0.734E+04-0.529E+04
DMP:  15     0.901478033920E+03   -0.28942E+02   -0.20379E+04   720   0.683E+04-0.455E+04
DMP:  16     0.116047509613E+04    0.25900E+03   -0.26655E+04   720   0.888E+04-0.580E+04
DMP:  17     0.140210975661E+04    0.24163E+03   -0.28128E+04   720   0.954E+04-0.657E+04
DMP:  18     0.180083622907E+04    0.39873E+03   -0.36434E+04   720   0.124E+05-0.861E+04
DMP:  19     0.212995199378E+04    0.32912E+03   -0.38287E+04   720   0.126E+05-0.787E+04
DMP:  20     0.288065722910E+04    0.75071E+03   -0.63340E+04   720   0.196E+05-0.998E+04
DMP:  21     0.328585277286E+04    0.40520E+03   -0.69876E+04   720   0.202E+05-0.704E+04
DMP:  22     0.314002281174E+04   -0.14583E+03   -0.10403E+05   720   0.317E+05-0.149E+05
DMP:  23     0.176764842700E+04   -0.13724E+04   -0.45627E+04   720   0.155E+05-0.107E+05
DMP:  24     0.832217524977E+03   -0.93543E+03   -0.20447E+04   720   0.886E+04-0.980E+04
DMP:  25     0.108187750454E+04    0.24966E+03   -0.38314E+04   720   0.136E+05-0.105E+05
DMP:  26     0.247543229762E+04    0.13936E+04   -0.69738E+04   720   0.229E+05-0.144E+05
DMP:  27     0.353643396630E+04    0.10610E+04   -0.46149E+04   720   0.159E+05-0.114E+05
DMP:  28     0.414561733446E+04    0.60918E+03   -0.38610E+04   720   0.134E+05-0.974E+04
DMP:  29     0.392723039560E+04   -0.21839E+03   -0.30052E+04   720   0.948E+04-0.516E+04
DMP:  30     0.456252767134E+04    0.63530E+03   -0.38014E+04   720   0.118E+05-0.603E+04
DMP:  31     0.391342405838E+04   -0.64910E+03   -0.73838E+04   720   0.247E+05-0.163E+05
DMP:  32     0.306615767098E+04   -0.84727E+03   -0.81312E+04   720   0.309E+05-0.276E+05
DMP:  33     0.372167052143E+04    0.65551E+03   -0.68047E+04   720   0.249E+05-0.206E+05
DMP:  34     0.487912438920E+04    0.11575E+04   -0.23611E+04   720   0.806E+04-0.563E+04
DMP:  35     0.446376365223E+04   -0.41536E+03   -0.16640E+04   720   0.592E+04-0.460E+04
DMP:  36     0.486054866065E+04    0.39679E+03   -0.20575E+04   720   0.717E+04-0.529E+04
DMP:  37     0.460486087426E+04   -0.25569E+03   -0.13562E+04   720   0.468E+04-0.336E+04
DMP:  38     0.489156730068E+04    0.28671E+03   -0.17009E+04   720   0.594E+04-0.441E+04
DMP:  39     0.461019088065E+04   -0.28138E+03   -0.11873E+04   720   0.409E+04-0.293E+04
DMP:  40     0.487483443055E+04    0.26464E+03   -0.16029E+04   720   0.564E+04-0.428E+04
DMP:  41     0.461157419383E+04   -0.26326E+03   -0.11338E+04   720   0.394E+04-0.290E+04
DMP:  42     0.489328704410E+04    0.28171E+03   -0.14709E+04   720   0.517E+04-0.390E+04
DMP:  43     0.463031674501E+04   -0.26297E+03   -0.10999E+04   720   0.382E+04-0.280E+04
DMP:  44     0.491137420480E+04    0.28106E+03   -0.15296E+04   720   0.537E+04-0.406E+04
DMP:  45     0.466905946360E+04   -0.24231E+03   -0.11262E+04   720   0.391E+04-0.287E+04
DMP:  46     0.494910780075E+04    0.28005E+03   -0.14370E+04   720   0.501E+04-0.370E+04
DMP:  47     0.471372575620E+04   -0.23538E+03   -0.11671E+04   720   0.405E+04-0.295E+04
DMP:  48     0.496337510786E+04    0.24965E+03   -0.15336E+04   720   0.536E+04-0.399E+04
DMP:  49     0.474338183159E+04   -0.21999E+03   -0.11878E+04   720   0.412E+04-0.300E+04
DMP:  50     0.498699178706E+04    0.24361E+03   -0.14568E+04   720   0.507E+04-0.375E+04
DMP:  51     0.477488504161E+04   -0.21211E+03   -0.12119E+04   720   0.419E+04-0.304E+04
DMP:  52     0.499165060380E+04    0.21677E+03   -0.15738E+04   720   0.551E+04-0.413E+04
DMP:  53     0.479426767338E+04   -0.19738E+03   -0.12361E+04   720   0.427E+04-0.310E+04
DMP:  54     0.502094511369E+04    0.22668E+03   -0.15172E+04   720   0.530E+04-0.395E+04
DMP:  55     0.480143665018E+04   -0.21951E+03   -0.12452E+04   720   0.430E+04-0.312E+04
DMP:  56     0.500806680332E+04    0.20663E+03   -0.16965E+04   720   0.599E+04-0.457E+04
DMP:  57     0.482180061141E+04   -0.18627E+03   -0.12650E+04   720   0.436E+04-0.313E+04
DMP:  58     0.503886651848E+04    0.21707E+03   -0.15561E+04   720   0.545E+04-0.410E+04
DMP:  59     0.482658507323E+04   -0.21228E+03   -0.12570E+04   720   0.433E+04-0.311E+04
DMP:  60     0.502518703061E+04    0.19860E+03   -0.16881E+04   720   0.594E+04-0.450E+04
   8 F= 0.50251870E+04 E0= 0.50253637E+04  d E =0.562525E+03
       N       E                     dE             d eps       ncg     rms          ort
SDA:   1     0.483468168545E+04    0.80966E+01   -0.69638E+04   720   0.174E+05 0.000E+00
DMP:   2     0.891942600630E+04    0.40847E+04   -0.29556E+05   720   0.773E+05-0.891E+04
DMP:   3     0.836293134215E+04   -0.55649E+03   -0.59821E+05   720   0.152E+06-0.700E+04
DMP:   4     0.498676532395E+04   -0.33762E+04   -0.38588E+05   720   0.993E+05-0.752E+04
DMP:   5     0.106600301105E+05    0.56733E+04   -0.71981E+05   720   0.185E+06-0.139E+05
DMP:   6     0.933683549645E+04   -0.13232E+04   -0.54138E+05   720   0.140E+06-0.121E+05
DMP:   7     0.843904365375E+04   -0.89779E+03   -0.48079E+05   720   0.127E+06-0.172E+05
DMP:   8     0.791998592297E+04   -0.51906E+03   -0.39708E+05   720   0.107E+06-0.200E+05
DMP:   9     0.613843094803E+04   -0.17816E+04   -0.27539E+05   720   0.759E+05-0.184E+05
DMP:  10     0.472251114398E+04   -0.14159E+04   -0.18462E+05   720   0.529E+05-0.176E+05
DMP:  11     0.317289649013E+04   -0.15496E+04   -0.97756E+04   720   0.295E+05-0.132E+05
DMP:  12     0.180065563767E+04   -0.13722E+04   -0.42065E+04   720   0.140E+05-0.910E+04
DMP:  13     0.102259703762E+04   -0.77806E+03   -0.20244E+04   720   0.720E+04-0.560E+04
DMP:  14     0.698414145374E+03   -0.32418E+03   -0.16002E+04   720   0.554E+04-0.402E+04
DMP:  15     0.641596678331E+03   -0.56817E+02   -0.16378E+04   720   0.536E+04-0.331E+04
DMP:  16     0.860609650709E+03    0.21901E+03   -0.23627E+04   720   0.776E+04-0.485E+04
DMP:  17     0.106537187416E+04    0.20476E+03   -0.24230E+04   720   0.823E+04-0.569E+04
DMP:  18     0.141215415451E+04    0.34678E+03   -0.31933E+04   720   0.110E+05-0.786E+04
DMP:  19     0.176242421042E+04    0.35027E+03   -0.33752E+04   720   0.115E+05-0.812E+04
DMP:  20     0.236021192788E+04    0.59779E+03   -0.46734E+04   720   0.154E+05-0.979E+04
DMP:  21     0.276267949818E+04    0.40247E+03   -0.56676E+04   720   0.171E+05-0.764E+04
DMP:  22     0.368231463682E+04    0.91964E+03   -0.11846E+05   720   0.344E+05-0.124E+05
DMP:  23     0.306971739659E+04   -0.61260E+03   -0.10413E+05   720   0.303E+05-0.112E+05
DMP:  24     0.125715858728E+04   -0.18126E+04   -0.28258E+04   720   0.104E+05-0.879E+04
DMP:  25     0.421481044442E+03   -0.83568E+03   -0.96661E+03   720   0.465E+04-0.584E+04
DMP:  26     0.533408059477E+03    0.11193E+03   -0.21683E+04   720   0.741E+04-0.522E+04
DMP:  27     0.133487959528E+04    0.80147E+03   -0.41405E+04   720   0.132E+05-0.748E+04
DMP:  28     0.247426428577E+04    0.11394E+04   -0.70024E+04   720   0.240E+05-0.170E+05
DMP:  29     0.345136909534E+04    0.97710E+03   -0.52062E+04   720   0.179E+05-0.127E+05
DMP:  30     0.413973122031E+04    0.68836E+03   -0.44555E+04   720   0.149E+05-0.977E+04
DMP:  31     0.409547225340E+04   -0.44259E+02   -0.41541E+04   720   0.129E+05-0.651E+04
DMP:  32     0.389414810469E+04   -0.20132E+03   -0.88869E+04   720   0.292E+05-0.182E+05
DMP:  33     0.323301472736E+04   -0.66113E+03   -0.68856E+04   720   0.231E+05-0.154E+05
DMP:  34     0.269015919684E+04   -0.54286E+03   -0.78032E+04   720   0.290E+05-0.249E+05
DMP:  35     0.359878260058E+04    0.90862E+03   -0.63849E+04   720   0.232E+05-0.189E+05
DMP:  36     0.507438384655E+04    0.14756E+04   -0.26896E+04   720   0.901E+04-0.599E+04
DMP:  37     0.456694455560E+04   -0.50744E+03   -0.20244E+04   720   0.703E+04-0.516E+04
DMP:  38     0.501185027784E+04    0.44491E+03   -0.25637E+04   720   0.866E+04-0.590E+04
DMP:  39     0.474563034188E+04   -0.26622E+03   -0.18579E+04   720   0.603E+04-0.363E+04
DMP:  40     0.503165378866E+04    0.28602E+03   -0.24687E+04   720   0.843E+04-0.592E+04
DMP:  41     0.483007818085E+04   -0.20158E+03   -0.16741E+04   720   0.555E+04-0.356E+04
DMP:  42     0.501906570672E+04    0.18899E+03   -0.23650E+04   720   0.839E+04-0.647E+04
DMP:  43     0.488124735782E+04   -0.13782E+03   -0.16717E+04   720   0.569E+04-0.396E+04
DMP:  44     0.506626747334E+04    0.18502E+03   -0.21428E+04   720   0.761E+04-0.589E+04
DMP:  45     0.488152067813E+04   -0.18475E+03   -0.16057E+04   720   0.551E+04-0.392E+04
DMP:  46     0.510750694661E+04    0.22599E+03   -0.21326E+04   720   0.754E+04-0.578E+04
DMP:  47     0.495259174034E+04   -0.15492E+03   -0.19039E+04   720   0.657E+04-0.473E+04
DMP:  48     0.518161968064E+04    0.22903E+03   -0.22280E+04   720   0.787E+04-0.603E+04
DMP:  49     0.500327203433E+04   -0.17835E+03   -0.19472E+04   720   0.668E+04-0.475E+04
DMP:  50     0.520993562858E+04    0.20666E+03   -0.24439E+04   720   0.867E+04-0.671E+04
DMP:  51     0.507681942614E+04   -0.13312E+03   -0.20782E+04   720   0.707E+04-0.491E+04
DMP:  52     0.526218826185E+04    0.18537E+03   -0.25267E+04   720   0.894E+04-0.686E+04
DMP:  53     0.513312821879E+04   -0.12906E+03   -0.21213E+04   720   0.724E+04-0.508E+04
DMP:  54     0.528799357692E+04    0.15487E+03   -0.25031E+04   720   0.882E+04-0.670E+04
DMP:  55     0.519749909108E+04   -0.90494E+02   -0.23426E+04   720   0.806E+04-0.577E+04
DMP:  56     0.530747967446E+04    0.10998E+03   -0.26508E+04   720   0.940E+04-0.726E+04
DMP:  57     0.523457644330E+04   -0.72903E+02   -0.23479E+04   720   0.810E+04-0.585E+04
DMP:  58     0.531143277074E+04    0.76856E+02   -0.27167E+04   720   0.966E+04-0.751E+04
DMP:  59     0.525346344033E+04   -0.57969E+02   -0.24482E+04   720   0.851E+04-0.627E+04
DMP:  60     0.534244578132E+04    0.88982E+02   -0.27540E+04   720   0.976E+04-0.753E+04
   9 F= 0.53424458E+04 E0= 0.53425979E+04  d E =0.879784E+03
       N       E                     dE             d eps       ncg     rms          ort
SDA:   1     0.517246337060E+04   -0.81000E+02   -0.10109E+05   720   0.253E+05 0.000E+00
DMP:   2     0.783251093872E+04    0.26600E+04   -0.39909E+05   720   0.103E+06-0.881E+04
DMP:   3     0.648359772501E+04   -0.13489E+04   -0.55670E+05   720   0.141E+06-0.354E+04
DMP:   4     0.451172089492E+04   -0.19719E+04   -0.34394E+05   720   0.870E+05-0.264E+04
DMP:   5     0.849229265050E+04    0.39806E+04   -0.57447E+05   720   0.148E+06-0.122E+05
DMP:   6     0.931393575648E+04    0.82164E+03   -0.54706E+05   720   0.143E+06-0.150E+05
DMP:   7     0.845937117637E+04   -0.85456E+03   -0.48523E+05   720   0.128E+06-0.184E+05
DMP:   8     0.788867197448E+04   -0.57070E+03   -0.40373E+05   720   0.109E+06-0.200E+05
DMP:   9     0.648982108077E+04   -0.13989E+04   -0.29362E+05   720   0.809E+05-0.197E+05
DMP:  10     0.482456673860E+04   -0.16653E+04   -0.19052E+05   720   0.546E+05-0.184E+05
DMP:  11     0.322969811524E+04   -0.15949E+04   -0.10124E+05   720   0.306E+05-0.138E+05
DMP:  12     0.183679107101E+04   -0.13929E+04   -0.43854E+04   720   0.146E+05-0.951E+04
DMP:  13     0.103984450152E+04   -0.79695E+03   -0.20179E+04   720   0.719E+04-0.561E+04
DMP:  14     0.717537359023E+03   -0.32231E+03   -0.16042E+04   720   0.553E+04-0.397E+04
DMP:  15     0.691073713341E+03   -0.26464E+02   -0.17213E+04   720   0.563E+04-0.347E+04
DMP:  16     0.905625738324E+03    0.21455E+03   -0.23029E+04   720   0.757E+04-0.476E+04
DMP:  17     0.113185839978E+04    0.22623E+03   -0.25482E+04   720   0.868E+04-0.605E+04
DMP:  18     0.146551982310E+04    0.33366E+03   -0.31916E+04   720   0.110E+05-0.793E+04
DMP:  19     0.187545007079E+04    0.40993E+03   -0.36496E+04   720   0.125E+05-0.875E+04
DMP:  20     0.241302306491E+04    0.53757E+03   -0.45675E+04   720   0.150E+05-0.925E+04
DMP:  21     0.296242424411E+04    0.54940E+03   -0.63704E+04   720   0.191E+05-0.840E+04
DMP:  22     0.363234368723E+04    0.66992E+03   -0.12239E+05   720   0.356E+05-0.131E+05
DMP:  23     0.285421948208E+04   -0.77812E+03   -0.95339E+04   720   0.284E+05-0.121E+05
DMP:  24     0.113332433006E+04   -0.17209E+04   -0.23721E+04   720   0.899E+04-0.801E+04
DMP:  25     0.407096182684E+03   -0.72623E+03   -0.95156E+03   720   0.452E+04-0.560E+04
DMP:  26     0.611060866199E+03    0.20396E+03   -0.21275E+04   720   0.714E+04-0.476E+04
DMP:  27     0.158609952537E+04    0.97504E+03   -0.52178E+04   720   0.167E+05-0.945E+04
DMP:  28     0.272432702846E+04    0.11382E+04   -0.74011E+04   720   0.256E+05-0.185E+05
DMP:  29     0.382361997123E+04    0.10993E+04   -0.53095E+04   720   0.183E+05-0.131E+05
DMP:  30     0.410834552952E+04    0.28473E+03   -0.36682E+04   720   0.118E+05-0.689E+04
DMP:  31     0.438796953581E+04    0.27962E+03   -0.43607E+04   720   0.135E+05-0.692E+04
DMP:  32     0.355219718387E+04   -0.83577E+03   -0.62573E+04   720   0.206E+05-0.129E+05
DMP:  33     0.307449040968E+04   -0.47771E+03   -0.67923E+04   720   0.239E+05-0.181E+05
DMP:  34     0.318527403152E+04    0.11078E+03   -0.97134E+04   720   0.354E+05-0.290E+05
DMP:  35     0.427336458944E+04    0.10881E+04   -0.50238E+04   720   0.181E+05-0.146E+05
DMP:  36     0.491872821421E+04    0.64536E+03   -0.20469E+04   720   0.692E+04-0.471E+04
DMP:  37     0.458484356887E+04   -0.33388E+03   -0.18298E+04   720   0.617E+04-0.418E+04
DMP:  38     0.494286145385E+04    0.35802E+03   -0.18199E+04   720   0.597E+04-0.371E+04
DMP:  39     0.473547309584E+04   -0.20739E+03   -0.14874E+04   720   0.493E+04-0.317E+04
DMP:  40     0.485710395588E+04    0.12163E+03   -0.15403E+04   720   0.523E+04-0.360E+04
DMP:  41     0.476242855646E+04   -0.94675E+02   -0.12555E+04   720   0.436E+04-0.321E+04
DMP:  42     0.478245263752E+04    0.20024E+02   -0.12912E+04   720   0.453E+04-0.341E+04
DMP:  43     0.477345074946E+04   -0.90019E+01   -0.11058E+04   720   0.388E+04-0.291E+04
DMP:  44     0.478300256286E+04    0.95518E+01   -0.11723E+04   720   0.411E+04-0.308E+04
DMP:  45     0.481176670288E+04    0.28764E+02   -0.10848E+04   720   0.379E+04-0.282E+04
DMP:  46     0.481849061383E+04    0.67239E+01   -0.11264E+04   720   0.393E+04-0.290E+04
DMP:  47     0.485252151375E+04    0.34031E+02   -0.10879E+04   720   0.378E+04-0.278E+04
DMP:  48     0.484996043241E+04   -0.25611E+01   -0.11223E+04   720   0.390E+04-0.288E+04
DMP:  49     0.488094223522E+04    0.30982E+02   -0.11102E+04   720   0.385E+04-0.282E+04
DMP:  50     0.488092934757E+04   -0.12888E-01   -0.11224E+04   720   0.389E+04-0.284E+04
DMP:  51     0.491020109685E+04    0.29272E+02   -0.11295E+04   720   0.391E+04-0.285E+04
DMP:  52     0.490255793027E+04   -0.76432E+01   -0.11339E+04   720   0.392E+04-0.285E+04
DMP:  53     0.493109084707E+04    0.28533E+02   -0.11433E+04   720   0.396E+04-0.288E+04
DMP:  54     0.491922617235E+04   -0.11865E+02   -0.11448E+04   720   0.396E+04-0.288E+04
DMP:  55     0.494491203757E+04    0.25686E+02   -0.11584E+04   720   0.401E+04-0.291E+04
DMP:  56     0.493678735964E+04   -0.81247E+01   -0.11431E+04   720   0.395E+04-0.285E+04
DMP:  57     0.495844117709E+04    0.21654E+02   -0.11644E+04   720   0.403E+04-0.293E+04
DMP:  58     0.494279918847E+04   -0.15642E+02   -0.11786E+04   720   0.408E+04-0.298E+04
DMP:  59     0.497614629416E+04    0.33347E+02   -0.11785E+04   720   0.408E+04-0.296E+04
DMP:  60     0.495628808991E+04   -0.19858E+02   -0.11591E+04   720   0.401E+04-0.291E+04
  10 F= 0.49562881E+04 E0= 0.49564321E+04  d E =0.493626E+03
       N       E                     dE             d eps       ncg     rms          ort
SDA:   1     0.498453957948E+04    0.83933E+01   -0.66410E+04   720   0.166E+05 0.000E+00
DMP:   2     0.924555244562E+04    0.42610E+04   -0.20632E+05   720   0.554E+05-0.989E+04
DMP:   3     0.961680890034E+04    0.37126E+03   -0.54995E+05   720   0.142E+06-0.125E+05
DMP:   4     0.639514338771E+04   -0.32217E+04   -0.50301E+05   720   0.126E+06-0.644E+03
DMP:   5     0.125068003836E+05    0.61117E+04   -0.83649E+05   720   0.212E+06-0.798E+04
DMP:   6     0.959503316308E+04   -0.29118E+04   -0.54858E+05   720   0.141E+06-0.107E+05
DMP:   7     0.816360488004E+04   -0.14314E+04   -0.43864E+05   720   0.116E+06-0.169E+05
DMP:   8     0.740106374312E+04   -0.76254E+03   -0.35847E+05   720   0.976E+05-0.209E+05
DMP:   9     0.556834075415E+04   -0.18327E+04   -0.24282E+05   720   0.674E+05-0.174E+05
DMP:  10     0.431218519154E+04   -0.12562E+04   -0.16555E+05   720   0.476E+05-0.162E+05
DMP:  11     0.311808879355E+04   -0.11941E+04   -0.10024E+05   720   0.301E+05-0.133E+05
DMP:  12     0.195688920444E+04   -0.11612E+04   -0.49396E+04   720   0.160E+05-0.958E+04
DMP:  13     0.124767355732E+04   -0.70922E+03   -0.27448E+04   720   0.949E+04-0.687E+04
DMP:  14     0.986736196540E+03   -0.26094E+03   -0.23816E+04   720   0.826E+04-0.604E+04
DMP:  15     0.970605219692E+03   -0.16131E+02   -0.20606E+04   720   0.686E+04-0.448E+04
DMP:  16     0.122862811710E+04    0.25802E+03   -0.27313E+04   720   0.911E+04-0.598E+04
DMP:  17     0.143017583452E+04    0.20155E+03   -0.27894E+04   720   0.946E+04-0.652E+04
DMP:  18     0.186592467515E+04    0.43575E+03   -0.39174E+04   720   0.132E+05-0.895E+04
DMP:  19     0.216125404285E+04    0.29533E+03   -0.39413E+04   720   0.127E+05-0.751E+04
DMP:  20     0.297844954144E+04    0.81720E+03   -0.67469E+04   720   0.207E+05-0.100E+05
DMP:  21     0.333885618751E+04    0.36041E+03   -0.71445E+04   720   0.207E+05-0.738E+04
DMP:  22     0.288722102226E+04   -0.45164E+03   -0.87931E+04   720   0.275E+05-0.145E+05
DMP:  23     0.163668106326E+04   -0.12505E+04   -0.41451E+04   720   0.147E+05-0.113E+05
DMP:  24     0.106716466901E+04   -0.56952E+03   -0.31828E+04   720   0.128E+05-0.126E+05
DMP:  25     0.169512622700E+04    0.62796E+03   -0.38098E+04   720   0.132E+05-0.975E+04
DMP:  26     0.349017272326E+04    0.17950E+04   -0.74070E+04   720   0.245E+05-0.158E+05
DMP:  27     0.376810276567E+04    0.27793E+03   -0.32246E+04   720   0.113E+05-0.853E+04
DMP:  28     0.409122286579E+04    0.32312E+03   -0.36794E+04   720   0.125E+05-0.857E+04
DMP:  29     0.409381557448E+04    0.25927E+01   -0.30370E+04   720   0.945E+04-0.486E+04
DMP:  30     0.395852890539E+04   -0.13529E+03   -0.78556E+04   720   0.268E+05-0.187E+05
DMP:  31     0.376576397637E+04   -0.19276E+03   -0.72055E+04   720   0.246E+05-0.172E+05
DMP:  32     0.422573712558E+04    0.45997E+03   -0.89449E+04   720   0.322E+05-0.257E+05
DMP:  33     0.435773148590E+04    0.13199E+03   -0.23661E+04   720   0.809E+04-0.569E+04
DMP:  34     0.492932475716E+04    0.57159E+03   -0.26668E+04   720   0.922E+04-0.669E+04
DMP:  35     0.451804595860E+04   -0.41128E+03   -0.17766E+04   720   0.605E+04-0.420E+04
DMP:  36     0.495265898405E+04    0.43461E+03   -0.23083E+04   720   0.800E+04-0.585E+04
DMP:  37     0.458349619635E+04   -0.36916E+03   -0.14840E+04   720   0.509E+04-0.361E+04
DMP:  38     0.494007886572E+04    0.35658E+03   -0.21422E+04   720   0.755E+04-0.575E+04
DMP:  39     0.463246444429E+04   -0.30761E+03   -0.14488E+04   720   0.498E+04-0.356E+04
DMP:  40     0.495423262800E+04    0.32177E+03   -0.21913E+04   720   0.781E+04-0.609E+04
DMP:  41     0.465808840797E+04   -0.29614E+03   -0.14458E+04   720   0.503E+04-0.370E+04
DMP:  42     0.498587261509E+04    0.32778E+03   -0.21288E+04   720   0.756E+04-0.587E+04
DMP:  43     0.473228632796E+04   -0.25359E+03   -0.16038E+04   720   0.554E+04-0.400E+04
DMP:  44     0.504691818383E+04    0.31463E+03   -0.22098E+04   720   0.782E+04-0.600E+04
DMP:  45     0.479215685907E+04   -0.25476E+03   -0.17475E+04   720   0.604E+04-0.437E+04
DMP:  46     0.508217320097E+04    0.29002E+03   -0.23088E+04   720   0.817E+04-0.627E+04
DMP:  47     0.484923911127E+04   -0.23293E+03   -0.18909E+04   720   0.644E+04-0.447E+04
DMP:  48     0.512612489253E+04    0.27689E+03   -0.24101E+04   720   0.847E+04-0.640E+04
DMP:  49     0.490607299577E+04   -0.22005E+03   -0.20400E+04   720   0.691E+04-0.473E+04
DMP:  50     0.515287679683E+04    0.24680E+03   -0.25086E+04   720   0.880E+04-0.661E+04
DMP:  51     0.497663734954E+04   -0.17624E+03   -0.20507E+04   720   0.695E+04-0.478E+04
DMP:  52     0.519467602872E+04    0.21804E+03   -0.24408E+04   720   0.854E+04-0.639E+04
DMP:  53     0.505788255704E+04   -0.13679E+03   -0.21825E+04   720   0.747E+04-0.527E+04
DMP:  54     0.523146003665E+04    0.17358E+03   -0.25849E+04   720   0.911E+04-0.693E+04
DMP:  55     0.510259186899E+04   -0.12887E+03   -0.21925E+04   720   0.751E+04-0.532E+04
DMP:  56     0.526290687278E+04    0.16032E+03   -0.27188E+04   720   0.963E+04-0.742E+04
DMP:  57     0.514169903183E+04   -0.12121E+03   -0.22874E+04   720   0.784E+04-0.556E+04
DMP:  58     0.528893448823E+04    0.14724E+03   -0.28287E+04   720   0.100E+05-0.773E+04
DMP:  59     0.518581829425E+04   -0.10312E+03   -0.25356E+04   720   0.876E+04-0.634E+04
DMP:  60     0.529225614629E+04    0.10644E+03   -0.29662E+04   720   0.105E+05-0.820E+04
  11 F= 0.52922561E+04 E0= 0.52924104E+04  d E =0.829594E+03
       N       E                     dE             d eps       ncg     rms          ort
SDA:   1     0.520047545871E+04    0.14657E+02   -0.10539E+05   720   0.263E+05 0.000E+00
DMP:   2     0.801057324243E+04    0.28101E+04   -0.40184E+05   720   0.104E+06-0.911E+04
DMP:   3     0.652874047728E+04   -0.14818E+04   -0.57069E+05   720   0.145E+06-0.496E+04
DMP:   4     0.449515866248E+04   -0.20336E+04   -0.33736E+05   720   0.858E+05-0.372E+04
DMP:   5     0.812539763321E+04    0.36302E+04   -0.54532E+05   720   0.141E+06-0.116E+05
DMP:   6     0.905781272971E+04    0.93242E+03   -0.53969E+05   720   0.141E+06-0.154E+05
DMP:   7     0.845979317786E+04   -0.59802E+03   -0.48696E+05   720   0.128E+06-0.177E+05
DMP:   8     0.778185701140E+04   -0.67794E+03   -0.39990E+05   720   0.107E+06-0.191E+05
DMP:   9     0.662492888596E+04   -0.11569E+04   -0.30175E+05   720   0.830E+05-0.198E+05
DMP:  10     0.483861921167E+04   -0.17863E+04   -0.19095E+05   720   0.547E+05-0.182E+05
DMP:  11     0.322050798068E+04   -0.16181E+04   -0.10115E+05   720   0.306E+05-0.140E+05
DMP:  12     0.182228376416E+04   -0.13982E+04   -0.42786E+04   720   0.142E+05-0.922E+04
DMP:  13     0.101729502522E+04   -0.80499E+03   -0.19523E+04   720   0.693E+04-0.537E+04
DMP:  14     0.688258892938E+03   -0.32904E+03   -0.15057E+04   720   0.518E+04-0.370E+04
DMP:  15     0.663192370169E+03   -0.25067E+02   -0.17998E+04   720   0.590E+04-0.366E+04
DMP:  16     0.849183468248E+03    0.18599E+03   -0.21255E+04   720   0.699E+04-0.440E+04
DMP:  17     0.108087131743E+04    0.23169E+03   -0.24974E+04   720   0.848E+04-0.586E+04
DMP:  18     0.139388312731E+04    0.31301E+03   -0.30725E+04   720   0.106E+05-0.772E+04
DMP:  19     0.178553029453E+04    0.39165E+03   -0.34831E+04   720   0.120E+05-0.849E+04
DMP:  20     0.235943941715E+04    0.57391E+03   -0.45787E+04   720   0.152E+05-0.980E+04
DMP:  21     0.288178343580E+04    0.52234E+03   -0.59411E+04   720   0.181E+05-0.842E+04
DMP:  22     0.367221290124E+04    0.79043E+03   -0.11685E+05   720   0.341E+05-0.127E+05
DMP:  23     0.300945641487E+04   -0.66276E+03   -0.96674E+04   720   0.285E+05-0.112E+05
DMP:  24     0.128140696627E+04   -0.17280E+04   -0.28490E+04   720   0.103E+05-0.839E+04
DMP:  25     0.445078600518E+03   -0.83633E+03   -0.89113E+03   720   0.419E+04-0.513E+04
DMP:  26     0.563025281051E+03    0.11795E+03   -0.20542E+04   720   0.709E+04-0.511E+04
DMP:  27     0.134009969546E+04    0.77707E+03   -0.41865E+04   720   0.134E+05-0.781E+04
DMP:  28     0.237649617373E+04    0.10364E+04   -0.65178E+04   720   0.225E+05-0.163E+05
DMP:  29     0.363258506212E+04    0.12561E+04   -0.58765E+04   720   0.201E+05-0.141E+05
DMP:  30     0.420483955805E+04    0.57225E+03   -0.40567E+04   720   0.136E+05-0.909E+04
DMP:  31     0.422600043511E+04    0.21161E+02   -0.40038E+04   720   0.125E+05-0.641E+04
DMP:  32     0.412614558615E+04   -0.99855E+02   -0.98025E+04   720   0.318E+05-0.191E+05
DMP:  33     0.339333534917E+04   -0.73281E+03   -0.70450E+04   720   0.234E+05-0.152E+05
DMP:  34     0.251227387288E+04   -0.88106E+03   -0.65586E+04   720   0.246E+05-0.216E+05
DMP:  35     0.310768878586E+04    0.59541E+03   -0.97379E+04   720   0.355E+05-0.292E+05
DMP:  36     0.477706642012E+04    0.16694E+04   -0.29388E+04   720   0.101E+05-0.721E+04
DMP:  37     0.467797427596E+04   -0.99092E+02   -0.16821E+04   720   0.591E+04-0.447E+04
DMP:  38     0.478325733875E+04    0.10528E+03   -0.19383E+04   720   0.675E+04-0.498E+04
DMP:  39     0.478406200519E+04    0.80467E+00   -0.14712E+04   720   0.489E+04-0.317E+04
DMP:  40     0.483816042949E+04    0.54098E+02   -0.15372E+04   720   0.521E+04-0.359E+04
DMP:  41     0.477137209824E+04   -0.66788E+02   -0.13116E+04   720   0.441E+04-0.297E+04
DMP:  42     0.482917360261E+04    0.57802E+02   -0.13987E+04   720   0.487E+04-0.360E+04
DMP:  43     0.475630366135E+04   -0.72870E+02   -0.11542E+04   720   0.398E+04-0.287E+04
DMP:  44     0.484875196402E+04    0.92448E+02   -0.12336E+04   720   0.435E+04-0.330E+04
DMP:  45     0.473526308023E+04   -0.11349E+03   -0.10687E+04   720   0.374E+04-0.280E+04
DMP:  46     0.486590480485E+04    0.13064E+03   -0.11833E+04   720   0.416E+04-0.314E+04
DMP:  47     0.476714742984E+04   -0.98757E+02   -0.10735E+04   720   0.375E+04-0.280E+04
DMP:  48     0.491443585050E+04    0.14729E+03   -0.11507E+04   720   0.401E+04-0.297E+04
