 vasp.5.4.1 05Feb16 (build Nov 25 2016 15:25:20) complex                        
  
 executed on           IFC91_ompi date 2017.11.19  19:10:52
 running on   96 total cores
 distrk:  each k-point on   96 cores,    1 groups
 distr:  one band on NCORES_PER_BAND=   1 cores,   96 groups


--------------------------------------------------------------------------------------------------------


 INCAR:
 POTCAR:    PAW_PBE Cd 06Sep2000                  
 POTCAR:    PAW_PBE In 08Apr2002                  
 POTCAR:    PAW_PBE S 06Sep2000                   

 ----------------------------------------------------------------------------- 
|                                                                             |
|           W    W    AA    RRRRR   N    N  II  N    N   GGGG   !!!           |
|           W    W   A  A   R    R  NN   N  II  NN   N  G    G  !!!           |
|           W    W  A    A  R    R  N N  N  II  N N  N  G       !!!           |
|           W WW W  AAAAAA  RRRRR   N  N N  II  N  N N  G  GGG   !            |
|           WW  WW  A    A  R   R   N   NN  II  N   NN  G    G                |
|           W    W  A    A  R    R  N    N  II  N    N   GGGG   !!!           |
|                                                                             |
|      For optimal performance we recommend to set                            |
|        NCORE= 4 - approx SQRT( number of cores)                             |
|      NCORE specifies how many cores store one orbital (NPAR=cpu/NCORE).     |
|      This setting can  greatly improve the performance of VASP for DFT.     |
|      The default, NPAR=number of cores might be grossly inefficient         |
|      on modern multi-core architectures or massively parallel machines.     |
|      Do your own testing !!!!                                               |
|      Unfortunately you need to use the default for GW and RPA calculations. |
|      (for HF NCORE is supported but not extensively tested yet)             |
|                                                                             |
 ----------------------------------------------------------------------------- 

 POTCAR:    PAW_PBE Cd 06Sep2000                  
   VRHFIN =Cd : s2 d10                                                          
   LEXCH  = PE                                                                  
   EATOM  =  1293.1815 eV,   95.0462 Ry                                         
                                                                                
   TITEL  = PAW_PBE Cd 06Sep2000                                                
   LULTRA =        F    use ultrasoft PP ?                                      
   IUNSCR =        1    unscreen: 0-lin 1-nonlin 2-no                           
   RPACOR =    2.000    partial core radius                                     
   POMASS =  112.411; ZVAL   =   12.000    mass and valenz                      
   RCORE  =    2.300    outmost cutoff radius                                   
   RWIGS  =    2.980; RWIGS  =    1.577    wigner-seitz radius (au A)           
   ENMAX  =  274.336; ENMIN  =  205.752 eV                                      
   RCLOC  =    2.054    cutoff for local pot                                    
   LCOR   =        T    correct aug charges                                     
   LPAW   =        T    paw PP                                                  
   EAUG   =  456.106                                                            
   DEXC   =    0.000                                                            
   RMAX   =    2.358    core radius for proj-oper                               
   RAUG   =    1.300    factor for augmentation sphere                          
   RDEP   =    2.450    radius for radial grids                                 
   RDEPT  =    1.955    core radius for aug-charge                              
                                                                                
   Atomic configuration                                                         
   12 entries                                                                   
     n  l   j            E        occ.                                          
     1  0  0.50    -26519.7817   2.0000                                         
     2  0  0.50     -3936.9612   2.0000                                         
     2  1  1.50     -3532.2230   6.0000                                         
     3  0  0.50      -733.7908   2.0000                                         
     3  1  1.50      -601.0792   6.0000                                         
     3  2  2.50      -393.5307  10.0000                                         
     4  0  0.50      -105.8977   2.0000                                         
     4  1  1.50       -66.9488   6.0000                                         
     4  2  2.50       -11.7331  10.0000                                         
     5  0  0.50        -5.6592   2.0000                                         
     5  1  0.50        -1.3606   0.0000                                         
     4  3  2.50        -1.3606   0.0000                                         
   Description                                                                  
     l       E           TYP  RCUT    TYP  RCUT                                 
     2    -11.7331479     23  2.300                                             
     2    -13.0937305     23  2.300                                             
     0     -5.6591502     23  2.300                                             
     0     -1.5561433     23  2.300                                             
     1     -2.7211652     23  2.300                                             
     1      8.3548275     23  2.300                                             
  local pseudopotential read in
  partial core-charges read in
  partial kinetic energy density read in
  atomic valenz-charges read in
  non local Contribution for L=           2  read in
    real space projection operators read in
  non local Contribution for L=           2  read in
    real space projection operators read in
  non local Contribution for L=           0  read in
    real space projection operators read in
  non local Contribution for L=           0  read in
    real space projection operators read in
  non local Contribution for L=           1  read in
    real space projection operators read in
  non local Contribution for L=           1  read in
    real space projection operators read in
    PAW grid and wavefunctions read in
 
   number of l-projection  operators is LMAX  =           6
   number of lm-projection operators is LMMAX =          18
 
 POTCAR:    PAW_PBE In 08Apr2002                  
   VRHFIN =In: s2p1                                                             
   LEXCH  = PE                                                                  
   EATOM  =    53.7908 eV,    3.9535 Ry                                         
                                                                                
   TITEL  = PAW_PBE In 08Apr2002                                                
   LULTRA =        F    use ultrasoft PP ?                                      
   IUNSCR =        1    unscreen: 0-lin 1-nonlin 2-no                           
   RPACOR =    2.400    partial core radius                                     
   POMASS =  114.820; ZVAL   =    3.000    mass and valenz                      
   RCORE  =    3.100    outmost cutoff radius                                   
   RWIGS  =    3.170; RWIGS  =    1.677    wigner-seitz radius (au A)           
   ENMAX  =   95.934; ENMIN  =   71.951 eV                                      
   ICORE  =        3    local potential                                         
   LCOR   =        T    correct aug charges                                     
   LPAW   =        T    paw PP                                                  
   EAUG   =  237.125                                                            
   DEXC   =    0.000                                                            
   RMAX   =    3.168    core radius for proj-oper                               
   RAUG   =    1.300    factor for augmentation sphere                          
   RDEP   =    3.187    radius for radial grids                                 
   RDEPT  =    2.711    core radius for aug-charge                              
                                                                                
   Atomic configuration                                                         
   13 entries                                                                   
     n  l   j            E        occ.                                          
     1  0  0.50    -27747.9169   2.0000                                         
     2  0  0.50     -4154.4438   2.0000                                         
     2  1  1.50     -3728.4305   6.0000                                         
     3  0  0.50      -788.3680   2.0000                                         
     3  1  1.50      -648.9215   6.0000                                         
     3  2  2.50      -432.5893  10.0000                                         
     4  0  0.50      -119.6363   2.0000                                         
     4  1  1.50       -78.1086   6.0000                                         
     4  2  2.50       -18.6227  10.0000                                         
     5  0  0.50        -8.2107   2.0000                                         
     5  1  0.50        -2.5185   1.0000                                         
     5  2  2.50        -1.3606   0.0000                                         
     4  3  2.50        -2.7212   0.0000                                         
   Description                                                                  
     l       E           TYP  RCUT    TYP  RCUT                                 
     0     -8.2107306     23  3.100                                             
     0     -6.1485975     23  3.100                                             
     1     -2.5184867     23  3.100                                             
     1      3.2427302     23  3.100                                             
     2     -1.3605826     23  3.100                                             
     3     -1.3605826     23  3.100                                             
  local pseudopotential read in
  partial core-charges read in
  partial kinetic energy density read in
  atomic valenz-charges read in
  non local Contribution for L=           0  read in
    real space projection operators read in
  non local Contribution for L=           0  read in
    real space projection operators read in
  non local Contribution for L=           1  read in
    real space projection operators read in
  non local Contribution for L=           1  read in
    real space projection operators read in
  non local Contribution for L=           2  read in
    real space projection operators read in
    PAW grid and wavefunctions read in
 
   number of l-projection  operators is LMAX  =           5
   number of lm-projection operators is LMMAX =          13
 
 POTCAR:    PAW_PBE S 06Sep2000                   
   VRHFIN =S : s2p4                                                             
   LEXCH  = PE                                                                  
   EATOM  =   276.8230 eV,   20.3459 Ry                                         
                                                                                
   TITEL  = PAW_PBE S 06Sep2000                                                 
   LULTRA =        F    use ultrasoft PP ?                                      
   IUNSCR =        1    unscreen: 0-lin 1-nonlin 2-no                           
   RPACOR =    1.500    partial core radius                                     
   POMASS =   32.066; ZVAL   =    6.000    mass and valenz                      
   RCORE  =    1.900    outmost cutoff radius                                   
   RWIGS  =    2.200; RWIGS  =    1.164    wigner-seitz radius (au A)           
   ENMAX  =  258.689; ENMIN  =  194.016 eV                                      
   ICORE  =        2    local potential                                         
   LCOR   =        T    correct aug charges                                     
   LPAW   =        T    paw PP                                                  
   EAUG   =  335.092                                                            
   DEXC   =    0.000                                                            
   RMAX   =    1.942    core radius for proj-oper                               
   RAUG   =    1.300    factor for augmentation sphere                          
   RDEP   =    1.954    radius for radial grids                                 
   RDEPT  =    1.744    core radius for aug-charge                              
                                                                                
   Atomic configuration                                                         
    6 entries                                                                   
     n  l   j            E        occ.                                          
     1  0  0.50     -2405.8406   2.0000                                         
     2  0  0.50      -211.7007   2.0000                                         
     2  1  1.50      -156.4958   6.0000                                         
     3  0  0.50       -17.2562   2.0000                                         
     3  1  0.50        -7.0085   4.0000                                         
     3  2  1.50        -6.8029   0.0000                                         
   Description                                                                  
     l       E           TYP  RCUT    TYP  RCUT                                 
     0    -17.2561641     23  1.900                                             
     0    -15.8743224     23  1.900                                             
     1     -7.0085400     23  1.900                                             
     1     -2.7779785     23  1.900                                             
     2     -6.8029130     23  1.900                                             
  local pseudopotential read in
  partial core-charges read in
  partial kinetic energy density read in
  atomic valenz-charges read in
  non local Contribution for L=           0  read in
    real space projection operators read in
  non local Contribution for L=           0  read in
    real space projection operators read in
  non local Contribution for L=           1  read in
    real space projection operators read in
  non local Contribution for L=           1  read in
    real space projection operators read in
    PAW grid and wavefunctions read in
 
   number of l-projection  operators is LMAX  =           4
   number of lm-projection operators is LMMAX =           8
 

 ----------------------------------------------------------------------------- 
|                                                                             |
|  ADVICE TO THIS USER RUNNING 'VASP/VAMP'   (HEAR YOUR MASTER'S VOICE ...):  |
|                                                                             |
|      You have a (more or less) 'large supercell' and for larger cells       |
|      it might be more efficient to use real space projection opertators     |
|      So try LREAL= Auto  in the INCAR   file.                               |
|      Mind: At the moment your POTCAR file does not contain real space       |
|       projectors, and has to be modified,  BUT if you                       |
|      want to do an extremely  accurate calculation you might also keep the  |
|      reciprocal projection scheme          (i.e. LREAL=.FALSE.)             |
|                                                                             |
 ----------------------------------------------------------------------------- 

  PAW_PBE Cd 06Sep2000                  :
 energy of atom  1       EATOM=-1293.1815
 kinetic energy error for atom=    0.0223 (will be added to EATOM!!)
  PAW_PBE In 08Apr2002                  :
 energy of atom  2       EATOM=  -53.7908
 kinetic energy error for atom=    0.0000 (will be added to EATOM!!)
  PAW_PBE S 06Sep2000                   :
 energy of atom  3       EATOM= -276.8230
 kinetic energy error for atom=    0.0046 (will be added to EATOM!!)
 
 
 POSCAR: Cd8 In16 S32                            
  positions in direct lattice
  velocities in cartesian coordinates
 exchange correlation table for  LEXCH =        8
   RHO(1)=    0.500       N(1)  =     2000
   RHO(2)=  100.500       N(2)  =     4000
 


--------------------------------------------------------------------------------------------------------


 ion  position               nearest neighbor table
   1  0.250  0.750  0.250-  38 2.57  31 2.57  44 2.57  56 2.57
   2  0.500  0.500  0.500-  27 2.57  34 2.57  45 2.57  49 2.57
   3  0.250  0.250  0.750-  39 2.57  30 2.57  52 2.57  48 2.57
   4  0.500  0.000  0.000-  26 2.57  35 2.57  41 2.57  53 2.57
   5  0.750  0.750  0.750-  28 2.57  40 2.57  47 2.57  54 2.57
   6  0.000  0.500  0.000-  29 2.57  43 2.57  33 2.57  50 2.57
   7  0.750  0.250  0.250-  36 2.57  55 2.57  46 2.57  32 2.57
   8  0.000  0.000  0.500-  37 2.57  42 2.57  25 2.57  51 2.57
   9  0.625  0.625  0.125-  27 2.66  44 2.66  46 2.66  47 2.66  29 2.66  26 2.66  11 3.90  12 3.90
                            18 3.90  20 3.90  22 3.90  23 3.90
  10  0.125  0.875  0.875-  41 2.66  39 2.66  38 2.66  40 2.66  42 2.66  43 2.66  11 3.90  16 3.90
                            17 3.90  19 3.90  20 3.90  21 3.90
  11  0.875  0.875  0.125-  25 2.66  36 2.66  38 2.66  40 2.66  29 2.66  26 2.66   9 3.90  10 3.90
                            12 3.90  16 3.90  18 3.90  21 3.90
  12  0.875  0.625  0.375-  32 2.66  29 2.66  31 2.66  28 2.66  25 2.66  27 2.66   9 3.90  11 3.90
                            14 3.90  15 3.90  17 3.90  18 3.90
  13  0.625  0.125  0.625-  34 2.66  52 2.66  55 2.66  54 2.66  37 2.66  35 2.66  15 3.90  16 3.90
                            18 3.90  19 3.90  22 3.90  24 3.90
  14  0.125  0.375  0.375-  49 2.66  50 2.66  51 2.66  31 2.66  30 2.66  32 2.66  12 3.90  15 3.90
                            17 3.90  21 3.90  23 3.90  24 3.90
  15  0.875  0.375  0.625-  32 2.66  37 2.66  30 2.66  28 2.66  34 2.66  33 2.66  12 3.90  13 3.90
                            14 3.90  16 3.90  17 3.90  22 3.90
  16  0.875  0.125  0.875-  33 2.66  36 2.66  39 2.66  40 2.66  35 2.66  37 2.66  10 3.90  11 3.90
                            13 3.90  15 3.90  21 3.90  22 3.90
  17  0.125  0.625  0.625-  45 2.66  31 2.66  30 2.66  28 2.66  43 2.66  42 2.66  10 3.90  12 3.90
                            14 3.90  15 3.90  19 3.90  20 3.90
  18  0.625  0.875  0.375-  56 2.66  26 2.66  55 2.66  54 2.66  27 2.66  25 2.66   9 3.90  11 3.90
                            12 3.90  13 3.90  19 3.90  24 3.90
  19  0.375  0.875  0.625-  56 2.66  42 2.66  52 2.66  54 2.66  45 2.66  41 2.66  10 3.90  13 3.90
                            17 3.90  18 3.90  20 3.90  24 3.90
  20  0.375  0.625  0.875-  48 2.66  43 2.66  44 2.66  47 2.66  41 2.66  45 2.66   9 3.90  10 3.90
                            17 3.90  19 3.90  22 3.90  23 3.90
  21  0.125  0.125  0.125-  50 2.66  51 2.66  53 2.66  36 2.66  38 2.66  39 2.66  10 3.90  11 3.90
                            14 3.90  16 3.90  23 3.90  24 3.90
  22  0.625  0.375  0.875-  48 2.66  35 2.66  46 2.66  47 2.66  33 2.66  34 2.66   9 3.90  13 3.90
                            15 3.90  16 3.90  20 3.90  23 3.90
  23  0.375  0.375  0.125-  49 2.66  50 2.66  53 2.66  46 2.66  44 2.66  48 2.66   9 3.90  14 3.90
                            20 3.90  21 3.90  22 3.90  24 3.90
  24  0.375  0.125  0.375-  49 2.66  51 2.66  53 2.66  52 2.66  55 2.66  56 2.66  13 3.90  14 3.90
                            18 3.90  19 3.90  21 3.90  23 3.90
  25  0.865  0.865  0.365-   8 2.57  11 2.66  12 2.66  18 2.66
  26  0.635  0.865  0.135-   4 2.57  18 2.66  11 2.66   9 2.66
  27  0.635  0.635  0.365-   2 2.57   9 2.66  12 2.66  18 2.66
  28  0.885  0.615  0.615-   5 2.57  12 2.66  15 2.66  17 2.66
  29  0.865  0.635  0.135-   6 2.57  12 2.66  11 2.66   9 2.66
  30  0.115  0.385  0.615-   3 2.57  17 2.66  15 2.66  14 2.66
  31  0.115  0.615  0.385-   1 2.57  17 2.66  12 2.66  14 2.66
  32  0.885  0.385  0.385-   7 2.57  12 2.66  15 2.66  14 2.66
  33  0.865  0.365  0.865-   6 2.57  16 2.66  22 2.66  15 2.66
  34  0.635  0.365  0.635-   2 2.57  13 2.66  15 2.66  22 2.66
  35  0.635  0.135  0.865-   4 2.57  22 2.66  16 2.66  13 2.66
  36  0.885  0.115  0.115-   7 2.57  11 2.66  16 2.66  21 2.66
  37  0.865  0.135  0.635-   8 2.57  15 2.66  13 2.66  16 2.66
  38  0.115  0.885  0.115-   1 2.57  10 2.66  11 2.66  21 2.66
  39  0.115  0.115  0.885-   3 2.57  10 2.66  16 2.66  21 2.66
  40  0.885  0.885  0.885-   5 2.57  10 2.66  11 2.66  16 2.66
  41  0.365  0.865  0.865-   4 2.57  10 2.66  20 2.66  19 2.66
  42  0.135  0.865  0.635-   8 2.57  19 2.66  17 2.66  10 2.66
  43  0.135  0.635  0.865-   6 2.57  20 2.66  17 2.66  10 2.66
  44  0.385  0.615  0.115-   1 2.57   9 2.66  20 2.66  23 2.66
  45  0.365  0.635  0.635-   2 2.57  17 2.66  19 2.66  20 2.66
  46  0.615  0.385  0.115-   7 2.57   9 2.66  22 2.66  23 2.66
  47  0.615  0.615  0.885-   5 2.57   9 2.66  20 2.66  22 2.66
  48  0.385  0.385  0.885-   3 2.57  20 2.66  22 2.66  23 2.66
  49  0.365  0.365  0.365-   2 2.57  14 2.66  23 2.66  24 2.66
  50  0.135  0.365  0.135-   6 2.57  21 2.66  14 2.66  23 2.66
  51  0.135  0.135  0.365-   8 2.57  21 2.66  14 2.66  24 2.66
  52  0.385  0.115  0.615-   3 2.57  13 2.66  19 2.66  24 2.66
  53  0.365  0.135  0.135-   4 2.57  21 2.66  23 2.66  24 2.66
  54  0.615  0.885  0.615-   5 2.57  13 2.66  18 2.66  19 2.66
  55  0.615  0.115  0.385-   7 2.57  13 2.66  18 2.66  24 2.66
  56  0.385  0.885  0.385-   1 2.57  18 2.66  19 2.66  24 2.66
 
  LATTYP: Found a simple cubic cell.
 ALAT       =    11.0388100570
  
  Lattice vectors:
  
 A1 = (  11.0388100570,   0.0000000000,   0.0000000000)
 A2 = (   0.0000000000,  11.0388100570,   0.0000000000)
 A3 = (   0.0000000000,   0.0000000000,  11.0388100570)


Analysis of symmetry for initial positions (statically):
=====================================================================
 Subroutine PRICEL returns following result:
 
  LATTYP: Found a face centered cubic cell.
 ALAT       =    11.0388100570
  
  Lattice vectors:
  
 A1 = (   5.5194050285,   5.5194050285,  -0.0000000000)
 A2 = (   5.5194050285,   0.0000000000,  -5.5194050285)
 A3 = (   0.0000000000,   5.5194050285,  -5.5194050285)
 
   4 primitive cells build up your supercell.
 

 Routine SETGRP: Setting up the symmetry group for a 
 simple cubic supercell.


 Subroutine GETGRP returns: Found 48 space group operations
 (whereof 24 operations were pure point group operations)
 out of a pool of 48 trial point group operations.


The static configuration has the point symmetry T_d .
 The point group associated with its full space group is O_h .


Analysis of symmetry for dynamics (positions and initial velocities):
=====================================================================
 Subroutine PRICEL returns following result:
 
  LATTYP: Found a face centered cubic cell.
 ALAT       =    11.0388100570
  
  Lattice vectors:
  
 A1 = (   5.5194050285,   5.5194050285,  -0.0000000000)
 A2 = (   5.5194050285,   0.0000000000,  -5.5194050285)
 A3 = (   0.0000000000,   5.5194050285,  -5.5194050285)
 
   4 primitive cells build up your supercell.
 

 Routine SETGRP: Setting up the symmetry group for a 
 simple cubic supercell.


 Subroutine GETGRP returns: Found 48 space group operations
 (whereof 24 operations were pure point group operations)
 out of a pool of 48 trial point group operations.


The dynamic configuration has the point symmetry T_d .
 The point group associated with its full space group is O_h .


 Subroutine INISYM returns: Found 48 space group operations
 (whereof 24 operations are pure point group operations),
 and found     4 'primitive' translations

 
 
 KPOINTS: Automatically generated mesh            
  k-points in reciprocal lattice
Space group operators:
 irot       det(A)        alpha          n_x          n_y          n_z        tau_x        tau_y        tau_z
    1     1.000000     0.000000     1.000000     0.000000     0.000000     0.000000     0.000000     0.000000
    2     1.000000   120.000000    -0.577350    -0.577350    -0.577350     0.000000     0.000000     0.000000
    3     1.000000   120.000000     0.577350     0.577350     0.577350     0.000000     0.000000     0.000000
    4    -1.000000    90.000000     0.000000     0.000000    -1.000000     0.000000     0.000000     0.000000
    5    -1.000000   180.000000     0.000000     0.707107     0.707107     0.000000     0.000000     0.000000
    6    -1.000000    90.000000     0.000000     1.000000     0.000000     0.000000     0.000000     0.000000
    7     1.000000   180.000000     0.000000     0.000000     1.000000     0.000000     0.000000     0.000000
    8     1.000000   120.000000    -0.577350     0.577350     0.577350     0.000000     0.000000     0.000000
    9     1.000000   120.000000    -0.577350     0.577350    -0.577350     0.000000     0.000000     0.000000
   10    -1.000000    90.000000     0.000000     0.000000     1.000000     0.000000     0.000000     0.000000
   11    -1.000000    90.000000    -1.000000     0.000000     0.000000     0.000000     0.000000     0.000000
   12    -1.000000   180.000000     0.707107     0.000000     0.707107     0.000000     0.000000     0.000000
   13     1.000000   120.000000     0.577350    -0.577350     0.577350     0.000000     0.000000     0.000000
   14     1.000000   120.000000    -0.577350    -0.577350     0.577350     0.000000     0.000000     0.000000
   15     1.000000   180.000000     1.000000     0.000000     0.000000     0.000000     0.000000     0.000000
   16    -1.000000    90.000000     0.000000    -1.000000     0.000000     0.000000     0.000000     0.000000
   17    -1.000000   180.000000     0.707107     0.707107     0.000000     0.000000     0.000000     0.000000
   18    -1.000000    90.000000     1.000000     0.000000     0.000000     0.000000     0.000000     0.000000
   19     1.000000   120.000000     0.577350    -0.577350    -0.577350     0.000000     0.000000     0.000000
   20     1.000000   180.000000     0.000000     1.000000     0.000000     0.000000     0.000000     0.000000
   21     1.000000   120.000000     0.577350     0.577350    -0.577350     0.000000     0.000000     0.000000
   22    -1.000000   180.000000     0.000000    -0.707107     0.707107     0.000000     0.000000     0.000000
   23    -1.000000   180.000000     0.707107    -0.707107     0.000000     0.000000     0.000000     0.000000
   24    -1.000000   180.000000     0.707107     0.000000    -0.707107     0.000000     0.000000     0.000000
   25    -1.000000     0.000000     1.000000     0.000000     0.000000     0.750000     0.750000    -0.750000
   26    -1.000000   120.000000    -0.577350    -0.577350    -0.577350     0.750000     0.750000    -0.750000
   27    -1.000000   120.000000     0.577350     0.577350     0.577350     0.750000     0.750000    -0.750000
   28     1.000000    90.000000     0.000000     0.000000    -1.000000     0.750000     0.750000    -0.750000
   29     1.000000   180.000000     0.000000     0.707107     0.707107     0.750000     0.750000    -0.750000
   30     1.000000    90.000000     0.000000     1.000000     0.000000     0.750000     0.750000    -0.750000
   31    -1.000000   180.000000     0.000000     0.000000     1.000000     0.750000     0.750000    -0.750000
   32    -1.000000   120.000000    -0.577350     0.577350     0.577350     0.750000     0.750000    -0.750000
   33    -1.000000   120.000000    -0.577350     0.577350    -0.577350     0.750000     0.750000    -0.750000
   34     1.000000    90.000000     0.000000     0.000000     1.000000     0.750000     0.750000    -0.750000
   35     1.000000    90.000000    -1.000000     0.000000     0.000000     0.750000     0.750000    -0.750000
   36     1.000000   180.000000     0.707107     0.000000     0.707107     0.750000     0.750000    -0.750000
   37    -1.000000   120.000000     0.577350    -0.577350     0.577350     0.750000     0.750000    -0.750000
   38    -1.000000   120.000000    -0.577350    -0.577350     0.577350     0.750000     0.750000    -0.750000
   39    -1.000000   180.000000     1.000000     0.000000     0.000000     0.750000     0.750000    -0.750000
   40     1.000000    90.000000     0.000000    -1.000000     0.000000     0.750000     0.750000    -0.750000
   41     1.000000   180.000000     0.707107     0.707107     0.000000     0.750000     0.750000    -0.750000
   42     1.000000    90.000000     1.000000     0.000000     0.000000     0.750000     0.750000    -0.750000
   43    -1.000000   120.000000     0.577350    -0.577350    -0.577350     0.750000     0.750000    -0.750000
   44    -1.000000   180.000000     0.000000     1.000000     0.000000     0.750000     0.750000    -0.750000
   45    -1.000000   120.000000     0.577350     0.577350    -0.577350     0.750000     0.750000    -0.750000
   46     1.000000   180.000000     0.000000    -0.707107     0.707107     0.750000     0.750000    -0.750000
   47     1.000000   180.000000     0.707107    -0.707107     0.000000     0.750000     0.750000    -0.750000
   48     1.000000   180.000000     0.707107     0.000000    -0.707107     0.750000     0.750000    -0.750000

 ----------------------------------------------------------------------------- 
|                                                                             |
|           W    W    AA    RRRRR   N    N  II  N    N   GGGG   !!!           |
|           W    W   A  A   R    R  NN   N  II  NN   N  G    G  !!!           |
|           W    W  A    A  R    R  N N  N  II  N N  N  G       !!!           |
|           W WW W  AAAAAA  RRRRR   N  N N  II  N  N N  G  GGG   !            |
|           WW  WW  A    A  R   R   N   NN  II  N   NN  G    G                |
|           W    W  A    A  R    R  N    N  II  N    N   GGGG   !!!           |
|                                                                             |
|      Your generating k-point grid is not commensurate to the symmetry       |
|      of the lattice.  This can cause   slow convergence with respect        |
|      to k-points for HF type calculations                                   |
|      suggested SOLUTIONS:                                                   |
|       ) if not already the case, use automatic k-point generation           |
|       ) shift your grid to Gamma (G) (e.g. required for hex or fcc lattice) |
|                                                                             |
 ----------------------------------------------------------------------------- 

 
 Subroutine IBZKPT_HF returns following result:
 ==============================================
 
 Found     34 k-points in 1st BZ
 the following     34 k-points will be used (e.g. in the exchange kernel)
 Following reciprocal coordinates:   # in IRBZ
  0.000000  0.000000  0.000000    0.03703704   1 t-inv F
  0.333333  0.000000  0.000000    0.03703704   2 t-inv F
  0.333333  0.333333  0.000000    0.03703704   3 t-inv F
  0.333333  0.333333  0.333333    0.03703704   4 t-inv F
  0.250000  0.250000  0.250000    0.00000000   5 t-inv F
  0.125000  0.125000  0.125000    0.00000000   6 t-inv F
  0.000000  0.000000  0.000000    0.00000000   7 t-inv F
  0.000000  0.125000  0.000000    0.00000000   8 t-inv F
  0.000000  0.250000  0.000000    0.00000000   9 t-inv F
  0.000000  0.375000  0.000000    0.00000000  10 t-inv F
  0.000000  0.500000  0.000000    0.00000000  11 t-inv F
  0.000000  0.333333  0.000000    0.03703704   2 t-inv F
  0.000000  0.000000  0.333333    0.03703704   2 t-inv F
  0.000000 -0.333333  0.000000    0.03703704   2 t-inv F
  0.000000  0.000000 -0.333333    0.03703704   2 t-inv F
 -0.333333  0.000000  0.000000    0.03703704   2 t-inv F
  0.000000  0.333333  0.333333    0.03703704   3 t-inv F
  0.333333  0.000000  0.333333    0.03703704   3 t-inv F
  0.333333 -0.333333  0.000000    0.03703704   3 t-inv F
  0.333333  0.000000 -0.333333    0.03703704   3 t-inv F
  0.000000 -0.333333 -0.333333    0.03703704   3 t-inv F
 -0.333333 -0.333333  0.000000    0.03703704   3 t-inv F
  0.000000 -0.333333  0.333333    0.03703704   3 t-inv F
 -0.333333  0.000000  0.333333    0.03703704   3 t-inv F
 -0.333333  0.333333  0.000000    0.03703704   3 t-inv F
 -0.333333  0.000000 -0.333333    0.03703704   3 t-inv F
  0.000000  0.333333 -0.333333    0.03703704   3 t-inv F
  0.333333 -0.333333 -0.333333    0.03703704   4 t-inv F
 -0.333333 -0.333333  0.333333    0.03703704   4 t-inv F
 -0.333333  0.333333 -0.333333    0.03703704   4 t-inv F
 -0.333333 -0.333333 -0.333333    0.03703704   4 t-inv F
 -0.333333  0.333333  0.333333    0.03703704   4 t-inv F
  0.333333  0.333333 -0.333333    0.03703704   4 t-inv F
  0.333333 -0.333333  0.333333    0.03703704   4 t-inv F


--------------------------------------------------------------------------------------------------------




 Dimension of arrays:
   k-points           NKPTS =     11   k-points in BZ     NKDIM =     34   number of bands    NBANDS=    288
   number of dos      NEDOS =   5001   number of ions     NIONS =     56
   non local maximal  LDIM  =      6   non local SUM 2l+1 LMDIM =     18
   total plane-waves  NPLWV = 373248
   max r-space proj   IRMAX =      1   max aug-charges    IRDMAX=  31499
   dimension x,y,z NGX =    72 NGY =   72 NGZ =   72
   dimension x,y,z NGXF=   144 NGYF=  144 NGZF=  144
   support grid    NGXF=   144 NGYF=  144 NGZF=  144
   ions per type =               8  16  32
 NGX,Y,Z   is equivalent  to a cutoff of  10.84, 10.84, 10.84 a.u.
 NGXF,Y,Z  is equivalent  to a cutoff of  21.69, 21.69, 21.69 a.u.


 I would recommend the setting:
   dimension x,y,z NGX =    72 NGY =   72 NGZ =   72
 SYSTEM =  CdIn2S4                                 
 POSCAR =  Cd8 In16 S32                            

 Startparameter for this run:
   NWRITE =      2    write-flag & timer
   PREC   = accura    normal or accurate (medium, high low for compatibility)
   ISTART =      1    job   : 0-new  1-cont  2-samecut
   ICHARG =      0    charge: 1-file 2-atom 10-const
   ISPIN  =      1    spin polarized calculation?
   LNONCOLLINEAR =      F non collinear calculations
   LSORBIT =      F    spin-orbit coupling
   INIWAV =      1    electr: 0-lowe 1-rand  2-diag
   LASPH  =      F    aspherical Exc in radial PAW
   METAGGA=      F    non-selfconsistent MetaGGA calc.

 Electronic Relaxation 1
   ENCUT  =  400.0 eV  29.40 Ry    5.42 a.u.  18.00 18.00 18.00*2*pi/ulx,y,z
   ENINI  =  400.0     initial cutoff
   ENAUG  =  456.1 eV  augmentation charge cutoff
   NELM   =     60;   NELMIN=  2; NELMDL=  0     # of ELM steps 
   EDIFF  = 0.1E-04   stopping-criterion for ELM
   LREAL  =      F    real-space projection
   NLSPLINE    = F    spline interpolate recip. space projectors
   LCOMPAT=      F    compatible to vasp.4.4
   GGA_COMPAT  = T    GGA compatible to vasp.4.4-vasp.4.6
   LMAXPAW     = -100 max onsite density
   LMAXMIX     =    2 max onsite mixed and CHGCAR
   VOSKOWN=      0    Vosko Wilk Nusair interpolation
   ROPT   =    0.00000   0.00000   0.00000
 Ionic relaxation
   EDIFFG = -.1E-01   stopping-criterion for IOM
   NSW    =      0    number of steps for IOM
   NBLOCK =      1;   KBLOCK =      1    inner block; outer block 
   IBRION =     -1    ionic relax: 0-MD 1-quasi-New 2-CG
   NFREE  =      1    steps in history (QN), initial steepest desc. (CG)
   ISIF   =      2    stress and relaxation
   IWAVPR =     10    prediction:  0-non 1-charg 2-wave 3-comb
   ISYM   =      3    0-nonsym 1-usesym 2-fastsym
   LCORR  =      T    Harris-Foulkes like correction to forces

   POTIM  = 0.5000    time-step for ionic-motion
   TEIN   =    0.0    initial temperature
   TEBEG  =    0.0;   TEEND  =   0.0 temperature during run
   SMASS  =  -3.00    Nose mass-parameter (am)
   estimated Nose-frequenzy (Omega)   =  0.10E-29 period in steps =****** mass=  -0.278E-26a.u.
   SCALEE = 1.0000    scale energy and forces
   NPACO  =    256;   APACO  = 16.0  distance and # of slots for P.C.
   PSTRESS=    0.0 pullay stress

  Mass of Ions in am
   POMASS = 112.41114.82 32.07
  Ionic Valenz
   ZVAL   =  12.00  3.00  6.00
  Atomic Wigner-Seitz radii
   RWIGS  =  -1.00 -1.00 -1.00
  virtual crystal weights 
   VCA    =   1.00  1.00  1.00
   NELECT =     336.0000    total number of electrons
   NUPDOWN=      -1.0000    fix difference up-down

 DOS related values:
   EMIN   = -10.00;   EMAX   = 10.00  energy-range for DOS
   EFERMI =   0.00
   ISMEAR =     0;   SIGMA  =   0.20  broadening in eV -4-tet -1-fermi 0-gaus

 Electronic relaxation 2 (details)
   IALGO  =     53    algorithm
   LDIAG  =      T    sub-space diagonalisation (order eigenvalues)
   LSUBROT=      F    optimize rotation matrix (better conditioning)
   TURBO    =      0    0=normal 1=particle mesh
   IRESTART =      0    0=no restart 2=restart with 2 vectors
   NREBOOT  =      0    no. of reboots
   NMIN     =      0    reboot dimension
   EREF     =   0.00    reference energy to select bands
   IMIX   =      4    mixing-type and parameters
     AMIX     =   0.40;   BMIX     =  1.00
     AMIX_MAG =   1.60;   BMIX_MAG =  1.00
     AMIN     =   0.10
     WC   =   100.;   INIMIX=   1;  MIXPRE=   1;  MAXMIX= -45

 Intra band minimization:
   WEIMIN = 0.0000     energy-eigenvalue tresh-hold
   EBREAK =  0.87E-08  absolut break condition
   DEPER  =   0.30     relativ break condition  

   TIME   =   0.40     timestep for ELM

  volume/ion in A,a.u.               =      24.02       162.10
  Fermi-wavevector in a.u.,A,eV,Ry     =   1.031017  1.948339 14.462928  1.062995
  Thomas-Fermi vector in A             =   2.165144
 
 Write flags
   LWAVE  =      T    write WAVECAR
   LCHARG =      T    write CHGCAR
   LVTOT  =      F    write LOCPOT, total local potential
   LVHAR  =      F    write LOCPOT, Hartree potential only
   LELF   =      F    write electronic localiz. function (ELF)
   LORBIT =     11    0 simple, 1 ext, 2 COOP (PROOUT)


 Dipole corrections
   LMONO  =      F    monopole corrections only (constant potential shift)
   LDIPOL =      F    correct potential (dipole corrections)
   IDIPOL =      0    1-x, 2-y, 3-z, 4-all directions 
   EPSILON=  1.0000000 bulk dielectric constant

 Exchange correlation treatment:
   GGA     =    --    GGA type
   LEXCH   =     8    internal setting for exchange type
   VOSKOWN=      0    Vosko Wilk Nusair interpolation
   EXXOEP  =     0    0=HF, 1=EXX-LHF (local Hartree Fock) 2=EXX OEP
   LHFCALC =     T    Hartree Fock is set to
   LSYMGRAD=     F    symmetrize gradient (conserves proper symmetry)
   PRECFOCK=fast      Normal, Fast or Accurate (Low or Medium for compatibility)
   LRHFCALC=     F    long range Hartree Fock
   LRSCOR  =     F    long range correlation only (use DFT for short range part)
   LTHOMAS =     F    Thomas Fermi screening in HF
   LMODELHF=     F    short range full HF, long range fraction AEXX
   ENCUT4O =  -1.0   cutoff for four orbital integrals eV
   LMAXFOCK=     4    L truncation for augmentation on plane wave grid
   LMAXFOCKAE=  -1    L truncation for all-electron charge restoration on plane wave grid
   NMAXFOCKAE=   1    number of basis functions for all-electron charge restoration
   LFOCKAEDFT=     F  apply the AE augmentation even for DFT
   NKREDX  =     1    reduce k-point grid by
   NKREDY  =     1    reduce k-point grid by
   NKREDZ  =     1    reduce k-point grid by
   SHIFTRED=     F    shift reduced grid of Gamma
   HFKIDENT=     F    idential grid for each k-point
   ODDONLY =     F    use only odd q-grid points
   EVENONLY=     F    use only even q-grid points
   HFALPHA =   -1.0000 decay constant for conv. correction
   MCALPHA =    0.0000 extent of test-charge in conv. correction in multipole expansion
   AEXX    =    0.2500 exact exchange contribution
   HFSCREEN=    0.0000 screening length (either q_TF or 0.3 A-1)
   HFSCREENC=   0.0000 screening length for correlation (either q_TF or 0.3 A-1)
   HFRCUT  =    0.0000 spherical cutoff for potential kernel
   ALDAX   =    0.7500 LDA exchange part
   AGGAX   =    0.7500 GGA exchange part
   ALDAC   =    1.0000 LDA correlation
   AGGAC   =    1.0000 GGA correlation
   NBANDSGWLOW=     1    first orbital included in HF term
   ENCUTFOCK=  -1.0 apply spherical cutoff to Coloumb kernel
 Linear response parameters
   LEPSILON=     F    determine dielectric tensor
   LRPA    =     F    only Hartree local field effects (RPA)
   LNABLA  =     F    use nabla operator in PAW spheres
   LVEL    =     F    velocity operator in full k-point grid
   LINTERFAST=   F  fast interpolation
   KINTER  =     0    interpolate to denser k-point grid
   CSHIFT  =0.1000    complex shift for real part using Kramers Kronig
   OMEGAMAX=  -1.0    maximum frequency
   DEG_THRESHOLD= 0.2000000E-02 threshold for treating states as degnerate
   RTIME   =    0.100 relaxation time in fs

 Orbital magnetization related:
   ORBITALMAG=     F  switch on orbital magnetization
   LCHIMAG   =     F  perturbation theory with respect to B field
   DQ        =  0.001000  dq finite difference perturbation B field



--------------------------------------------------------------------------------------------------------


 Static calculation
 charge density and potential will be updated during run
 non-spin polarized calculation
 Conjugate gradient for all bands (Freysoldt, et al. PRB 79, 241103 (2009))
 perform sub-space diagonalisation
    before iterative eigenvector-optimisation
 modified Broyden-mixing scheme, WC =      100.0
 initial mixing is a Kerker type mixing with AMIX =  0.4000 and BMIX =      1.0000
 Hartree-type preconditioning will be used
 using additional bands          120
 reciprocal scheme for non local part
 use partial core corrections
 no Harris-corrections to forces 
 use gradient corrections 
 use of overlap-Matrix (Vanderbilt PP)
 Gauss-broadening in eV      SIGMA  =   0.20


--------------------------------------------------------------------------------------------------------


  energy-cutoff  :      400.00
  volume of cell :     1345.14
      direct lattice vectors                 reciprocal lattice vectors
    11.038810057  0.000000000  0.000000000     0.090589474  0.000000000  0.000000000
     0.000000000 11.038810057  0.000000000     0.000000000  0.090589474  0.000000000
     0.000000000  0.000000000 11.038810057     0.000000000  0.000000000  0.090589474

  length of vectors
    11.038810057 11.038810057 11.038810057     0.090589474  0.090589474  0.090589474


 
 old parameters found on file WAVECAR:
  energy-cutoff  :      400.00
  volume of cell :     1345.14
      direct lattice vectors                 reciprocal lattice vectors
    11.038810057  0.000000000  0.000000000     0.090589474  0.000000000  0.000000000
     0.000000000 11.038810057  0.000000000     0.000000000  0.090589474  0.000000000
     0.000000000  0.000000000 11.038810057     0.000000000  0.000000000  0.090589474

  length of vectors

 
 k-points in units of 2pi/SCALE and weight: Automatically generated mesh            
   0.00000000  0.00000000  0.00000000       0.037
   0.03019649  0.00000000  0.00000000       0.222
   0.03019649  0.03019649  0.00000000       0.444
   0.03019649  0.03019649  0.03019649       0.296
   0.02264737  0.02264737  0.02264737       0.000
   0.01132368  0.01132368  0.01132368       0.000
   0.00000000  0.00000000  0.00000000       0.000
   0.00000000  0.01132368  0.00000000       0.000
   0.00000000  0.02264737  0.00000000       0.000
   0.00000000  0.03397105  0.00000000       0.000
   0.00000000  0.04529474  0.00000000       0.000
 
 k-points in reciprocal lattice and weights: Automatically generated mesh            
   0.00000000  0.00000000  0.00000000       0.037
   0.33333333  0.00000000  0.00000000       0.222
   0.33333333  0.33333333  0.00000000       0.444
   0.33333333  0.33333333  0.33333333       0.296
   0.25000000  0.25000000  0.25000000       0.000
   0.12500000  0.12500000  0.12500000       0.000
   0.00000000  0.00000000  0.00000000       0.000
   0.00000000  0.12500000  0.00000000       0.000
   0.00000000  0.25000000  0.00000000       0.000
   0.00000000  0.37500000  0.00000000       0.000
   0.00000000  0.50000000  0.00000000       0.000
 
 position of ions in fractional coordinates (direct lattice) 
   0.25000000  0.75000000  0.25000000
   0.50000000  0.50000000  0.50000000
   0.25000000  0.25000000  0.75000000
   0.50000000  0.00000000  0.00000000
   0.75000000  0.75000000  0.75000000
   0.00000000  0.50000000  0.00000000
   0.75000000  0.25000000  0.25000000
   0.00000000  0.00000000  0.50000000
   0.62500000  0.62500000  0.12500000
   0.12500000  0.87500000  0.87500000
   0.87500000  0.87500000  0.12500000
   0.87500000  0.62500000  0.37500000
   0.62500000  0.12500000  0.62500000
   0.12500000  0.37500000  0.37500000
   0.87500000  0.37500000  0.62500000
   0.87500000  0.12500000  0.87500000
   0.12500000  0.62500000  0.62500000
   0.62500000  0.87500000  0.37500000
   0.37500000  0.87500000  0.62500000
   0.37500000  0.62500000  0.87500000
   0.12500000  0.12500000  0.12500000
   0.62500000  0.37500000  0.87500000
   0.37500000  0.37500000  0.12500000
   0.37500000  0.12500000  0.37500000
   0.86547431  0.86547431  0.36547428
   0.63452569  0.86547431  0.13452571
   0.63452569  0.63452569  0.36547428
   0.88452569  0.61547431  0.61547431
   0.86547431  0.63452569  0.13452571
   0.11547429  0.38452572  0.61547431
   0.11547429  0.61547431  0.38452572
   0.88452569  0.38452572  0.38452572
   0.86547431  0.36547428  0.86547431
   0.63452569  0.36547428  0.63452569
   0.63452569  0.13452571  0.86547431
   0.88452569  0.11547429  0.11547429
   0.86547431  0.13452571  0.63452569
   0.11547429  0.88452569  0.11547429
   0.11547429  0.11547429  0.88452569
   0.88452569  0.88452569  0.88452569
   0.36547428  0.86547431  0.86547431
   0.13452571  0.86547431  0.63452569
   0.13452571  0.63452569  0.86547431
   0.38452572  0.61547431  0.11547429
   0.36547428  0.63452569  0.63452569
   0.61547431  0.38452572  0.11547429
   0.61547431  0.61547431  0.88452569
   0.38452572  0.38452572  0.88452569
   0.36547428  0.36547428  0.36547428
   0.13452571  0.36547428  0.13452571
   0.13452571  0.13452571  0.36547428
   0.38452572  0.11547429  0.61547431
   0.36547428  0.13452571  0.13452571
   0.61547431  0.88452569  0.61547431
   0.61547431  0.11547429  0.38452572
   0.38452572  0.88452569  0.38452572
 
 position of ions in cartesian coordinates  (Angst):
   2.75970251  8.27910754  2.75970251
   5.51940503  5.51940503  5.51940503
   2.75970251  2.75970251  8.27910754
   5.51940503  0.00000000  0.00000000
   8.27910754  8.27910754  8.27910754
   0.00000000  5.51940503  0.00000000
   8.27910754  2.75970251  2.75970251
   0.00000000  0.00000000  5.51940503
   6.89925629  6.89925629  1.37985126
   1.37985126  9.65895880  9.65895880
   9.65895880  9.65895880  1.37985126
   9.65895880  6.89925629  4.13955377
   6.89925629  1.37985126  6.89925629
   1.37985126  4.13955377  4.13955377
   9.65895880  4.13955377  6.89925629
   9.65895880  1.37985126  9.65895880
   1.37985126  6.89925629  6.89925629
   6.89925629  9.65895880  4.13955377
   4.13955377  9.65895880  6.89925629
   4.13955377  6.89925629  9.65895880
   1.37985126  1.37985126  1.37985126
   6.89925629  4.13955377  9.65895880
   4.13955377  4.13955377  1.37985126
   4.13955377  1.37985126  4.13955377
   9.55380652  9.55380652  4.03440116
   7.00440857  9.55380652  1.48500371
   7.00440857  7.00440857  4.03440116
   9.76411108  6.79410400  6.79410400
   9.55380652  7.00440857  1.48500371
   1.27469881  4.24470639  6.79410400
   1.27469881  6.79410400  4.24470639
   9.76411108  4.24470639  4.24470639
   9.55380652  4.03440116  9.55380652
   7.00440857  4.03440116  7.00440857
   7.00440857  1.48500371  9.55380652
   9.76411108  1.27469881  1.27469881
   9.55380652  1.48500371  7.00440857
   1.27469881  9.76411108  1.27469881
   1.27469881  1.27469881  9.76411108
   9.76411108  9.76411108  9.76411108
   4.03440116  9.55380652  9.55380652
   1.48500371  9.55380652  7.00440857
   1.48500371  7.00440857  9.55380652
   4.24470639  6.79410400  1.27469881
   4.03440116  7.00440857  7.00440857
   6.79410400  4.24470639  1.27469881
   6.79410400  6.79410400  9.76411108
   4.24470639  4.24470639  9.76411108
   4.03440116  4.03440116  4.03440116
   1.48500371  4.03440116  1.48500371
   1.48500371  1.48500371  4.03440116
   4.24470639  1.27469881  6.79410400
   4.03440116  1.48500371  1.48500371
   6.79410400  9.76411108  6.79410400
   6.79410400  1.27469881  4.24470639
   4.24470639  9.76411108  4.24470639
 


--------------------------------------------------------------------------------------------------------


 k-point  1 :   0.0000 0.0000 0.0000  plane waves:   24405
 k-point  2 :   0.3333 0.0000 0.0000  plane waves:   24376
 k-point  3 :   0.3333 0.3333 0.0000  plane waves:   24432
 k-point  4 :   0.3333 0.3333 0.3333  plane waves:   24489
 k-point  5 :   0.2500 0.2500 0.2500  plane waves:   24420
 k-point  6 :   0.1250 0.1250 0.1250  plane waves:   24471
 k-point  7 :   0.0000 0.0000 0.0000  plane waves:   24405
 k-point  8 :   0.0000 0.1250 0.0000  plane waves:   24400
 k-point  9 :   0.0000 0.2500 0.0000  plane waves:   24408
 k-point 10 :   0.0000 0.3750 0.0000  plane waves:   24392
 k-point 11 :   0.0000 0.5000 0.0000  plane waves:   24364

 maximum and minimum number of plane-waves per node :     24489    24364

 maximum number of plane-waves:     24489
 maximum index in each direction: 
   IXMAX=   18   IYMAX=   18   IZMAX=   18
   IXMIN=  -18   IYMIN=  -18   IZMIN=  -18

 WARNING: aliasing errors must be expected set NGX to  74 to avoid them
 WARNING: aliasing errors must be expected set NGY to  74 to avoid them
 WARNING: aliasing errors must be expected set NGZ to  74 to avoid them
 aliasing errors are usually negligible using standard VASP settings
 and one can safely disregard these warnings

 serial   3D FFT for wavefunctions
 parallel 3D FFT for charge:
    minimum data exchange during FFTs selected (reduces bandwidth)


 FFT grid for exact exchange (Hartree Fock) 
  NGX = 40; NGY = 40; NGZ = 40

 
 Radii for the augmentation spheres in the non-local exchange
 for species   1 augmentation radius   1.444 (default was   1.070)
       energy cutoff for augmentation   1600.0
 for species   2 augmentation radius   2.003 (default was   1.484)
       energy cutoff for augmentation   1600.0
 for species   3 augmentation radius   1.309 (default was   0.970)
       energy cutoff for augmentation   1600.0
 Maximum index for augmentation-charges in exchange         1575
  SETUP_FOCK is finished

 total amount of memory used by VASP on root node   239750. kBytes
========================================================================

   base      :      30000. kBytes
   nonl-proj :     138805. kBytes
   fftplans  :       2873. kBytes
   grid      :      17694. kBytes
   one-center:        870. kBytes
   HF        :        194. kBytes
   nonlr-proj:       9324. kBytes
   wavefun   :      39990. kBytes
 
     INWAV:  cpu time   12.0568: real time   12.0756
 Broyden mixing: mesh for mixing (old mesh)
   NGX = 37   NGY = 37   NGZ = 37
  (NGX  =144   NGY  =144   NGZ  =144)
  gives a total of  50653 points

 charge density for first step will be calculated from the start-wavefunctions


--------------------------------------------------------------------------------------------------------


 Maximum index for augmentation-charges         1069 (set IRDMAX)


--------------------------------------------------------------------------------------------------------


 initial charge from wavefunction
 First call to EWALD:  gamma=   0.161
 Maximum number of real-space cells 3x 3x 3
 Maximum number of reciprocal cells 3x 3x 3

 FEWALD executed in parallel
    FEWALD:  cpu time    0.0120: real time    0.0097


----------------------------------------- Iteration    1(   1)  ---------------------------------------


    POTLOK:  cpu time    0.2000: real time    0.2055
    SETDIJ:  cpu time    0.1160: real time    0.1147
    TRIAL :  cpu time 2810.5356: real time 2821.7290
    CORREC:  cpu time    0.0200: real time    0.0198
    CHARGE:  cpu time    1.8121: real time    1.8168
    --------------------------------------------
      LOOP:  cpu time 2812.7078: real time 2823.9153

 eigenvalue-minimisations  :     0
 total energy-change (2. order) :-0.2821740E+03  (-0.4482471E-02)
 number of electron     335.9999808 magnetization 
 augmentation part       12.7319773 magnetization 

 Free energy of the ion-electron system (eV)
  ---------------------------------------------------
  alpha Z        PSCENC =       567.60656902
  Ewald energy   TEWEN  =    -15322.50184449
  -Hartree energ DENC   =     -5534.89591555
  -exchange      EXHF   =       758.58980106
  -V(xc)+E(xc)   XCENC  =      -335.30191350
  PAW double counting   =     36200.91031544   -35148.10418407
  entropy T*S    EENTRO =        -0.00000000
  eigenvalues    EBANDS =     -1441.57203607
  atomic energy  EATOM  =     19973.09518185
  ---------------------------------------------------
  free energy    TOTEN  =      -282.17402630 eV

  energy without entropy =     -282.17402630  energy(sigma->0) =     -282.17402630
  exchange ACFDT corr.  =        -0.00000000  see jH, gK, PRB 81, 115126


--------------------------------------------------------------------------------------------------------




----------------------------------------- Iteration    1(   2)  ---------------------------------------


    POTLOK:  cpu time    0.1400: real time    0.1379
    SETDIJ:  cpu time    0.0480: real time    0.0485
    TRIAL :  cpu time 2806.5794: real time 2818.0671
    CORREC:  cpu time    0.0520: real time    0.0539
    CHARGE:  cpu time    1.8561: real time    1.8696
    --------------------------------------------
      LOOP:  cpu time 2808.6795: real time 2820.2061

 eigenvalue-minimisations  :     0
 total energy-change (2. order) :-0.3708638E-02  (-0.3401536E-02)
 number of electron     335.9999808 magnetization 
 augmentation part       12.7301009 magnetization 

 Free energy of the ion-electron system (eV)
  ---------------------------------------------------
  alpha Z        PSCENC =       567.60656902
  Ewald energy   TEWEN  =    -15322.50184449
  -Hartree energ DENC   =     -5536.06103842
  -exchange      EXHF   =       758.62473457
  -V(xc)+E(xc)   XCENC  =      -335.27165461
  PAW double counting   =     36201.43775680   -35148.66378205
  entropy T*S    EENTRO =        -0.00000000
  eigenvalues    EBANDS =     -1440.44365760
  atomic energy  EATOM  =     19973.09518185
  ---------------------------------------------------
  free energy    TOTEN  =      -282.17773494 eV

  energy without entropy =     -282.17773494  energy(sigma->0) =     -282.17773494
  exchange ACFDT corr.  =        -0.00000000  see jH, gK, PRB 81, 115126


--------------------------------------------------------------------------------------------------------




----------------------------------------- Iteration    1(   3)  ---------------------------------------


    POTLOK:  cpu time    0.1360: real time    0.1379
    SETDIJ:  cpu time    0.0400: real time    0.0393
    TRIAL :  cpu time 2820.4763: real time 2831.0709
    CORREC:  cpu time    0.1040: real time    0.1054
    CHARGE:  cpu time    1.9081: real time    1.9105
    --------------------------------------------
      LOOP:  cpu time 2822.6684: real time 2833.2711

 eigenvalue-minimisations  :     0
 total energy-change (2. order) :-0.2833266E-02  (-0.2193210E-02)
 number of electron     335.9999808 magnetization 
 augmentation part       12.7241311 magnetization 

 Free energy of the ion-electron system (eV)
  ---------------------------------------------------
  alpha Z        PSCENC =       567.60656902
  Ewald energy   TEWEN  =    -15322.50184449
  -Hartree energ DENC   =     -5536.47877778
  -exchange      EXHF   =       758.64244831
  -V(xc)+E(xc)   XCENC  =      -335.26019593
  PAW double counting   =     36205.75981634   -35152.98542935
  entropy T*S    EENTRO =        -0.00000000
  eigenvalues    EBANDS =     -1440.05833619
  atomic energy  EATOM  =     19973.09518185
  ---------------------------------------------------
  free energy    TOTEN  =      -282.18056820 eV

  energy without entropy =     -282.18056820  energy(sigma->0) =     -282.18056820
  exchange ACFDT corr.  =        -0.00000000  see jH, gK, PRB 81, 115126


--------------------------------------------------------------------------------------------------------




----------------------------------------- Iteration    1(   4)  ---------------------------------------


    POTLOK:  cpu time    0.1440: real time    0.1444
    SETDIJ:  cpu time    0.0400: real time    0.0431
    TRIAL :  cpu time 2830.6809: real time 2841.6080
    CORREC:  cpu time    0.0560: real time    0.0568
    CHARGE:  cpu time    1.7961: real time    1.8180
    --------------------------------------------
      LOOP:  cpu time 2832.7250: real time 2843.7057

 eigenvalue-minimisations  :     0
 total energy-change (2. order) :-0.1849468E-02  (-0.1271416E-02)
 number of electron     335.9999808 magnetization 
 augmentation part       12.7207180 magnetization 

 Free energy of the ion-electron system (eV)
  ---------------------------------------------------
  alpha Z        PSCENC =       567.60656902
  Ewald energy   TEWEN  =    -15322.50184449
  -Hartree energ DENC   =     -5536.24479744
  -exchange      EXHF   =       758.64261106
  -V(xc)+E(xc)   XCENC  =      -335.26584384
  PAW double counting   =     36212.38587449   -35159.59134882
  entropy T*S    EENTRO =        -0.00000000
  eigenvalues    EBANDS =     -1440.30881951
  atomic energy  EATOM  =     19973.09518185
  ---------------------------------------------------
  free energy    TOTEN  =      -282.18241767 eV

  energy without entropy =     -282.18241767  energy(sigma->0) =     -282.18241767
  exchange ACFDT corr.  =        -0.00000000  see jH, gK, PRB 81, 115126


--------------------------------------------------------------------------------------------------------




----------------------------------------- Iteration    1(   5)  ---------------------------------------


    POTLOK:  cpu time    0.1400: real time    0.1395
    SETDIJ:  cpu time    0.0480: real time    0.0484
    TRIAL :  cpu time 2831.3369: real time 2841.9121
    CORREC:  cpu time    0.0520: real time    0.0517
    CHARGE:  cpu time    1.8441: real time    1.8439
    --------------------------------------------
      LOOP:  cpu time 2833.4251: real time 2844.0292

 eigenvalue-minimisations  :     0
 total energy-change (2. order) :-0.1080668E-02  (-0.6982231E-03)
 number of electron     335.9999808 magnetization 
 augmentation part       12.7192372 magnetization 

 Free energy of the ion-electron system (eV)
  ---------------------------------------------------
  alpha Z        PSCENC =       567.60656902
  Ewald energy   TEWEN  =    -15322.50184449
  -Hartree energ DENC   =     -5536.26525291
  -exchange      EXHF   =       758.64697788
  -V(xc)+E(xc)   XCENC  =      -335.26577020
  PAW double counting   =     36217.40097744   -35164.60519840
  entropy T*S    EENTRO =        -0.00000000
  eigenvalues    EBANDS =     -1440.29513854
  atomic energy  EATOM  =     19973.09518185
  ---------------------------------------------------
  free energy    TOTEN  =      -282.18349834 eV

  energy without entropy =     -282.18349834  energy(sigma->0) =     -282.18349834
  exchange ACFDT corr.  =        -0.00000000  see jH, gK, PRB 81, 115126


--------------------------------------------------------------------------------------------------------




----------------------------------------- Iteration    1(   6)  ---------------------------------------


    POTLOK:  cpu time    0.1400: real time    0.1437
    SETDIJ:  cpu time    0.0480: real time    0.0454
    TRIAL :  cpu time 2814.8119: real time 2825.8782
    CORREC:  cpu time    0.0080: real time    0.0057
    CHARGE:  cpu time    1.7641: real time    1.7891
    --------------------------------------------
      LOOP:  cpu time 2816.7760: real time 2827.9048

 eigenvalue-minimisations  :     0
 total energy-change (2. order) :-0.5939518E-03  (-0.3559633E-03)
 number of electron     335.9999808 magnetization 
 augmentation part       12.7177551 magnetization 

 Free energy of the ion-electron system (eV)
  ---------------------------------------------------
  alpha Z        PSCENC =       567.60656902
  Ewald energy   TEWEN  =    -15322.50184449
  -Hartree energ DENC   =     -5536.48359912
  -exchange      EXHF   =       758.65526828
  -V(xc)+E(xc)   XCENC  =      -335.26062096
  PAW double counting   =     36220.08103204   -35167.29494467
  entropy T*S    EENTRO =        -0.00000000
  eigenvalues    EBANDS =     -1440.08113424
  atomic energy  EATOM  =     19973.09518185
  ---------------------------------------------------
  free energy    TOTEN  =      -282.18409229 eV

  energy without entropy =     -282.18409229  energy(sigma->0) =     -282.18409229
  exchange ACFDT corr.  =        -0.00000000  see jH, gK, PRB 81, 115126


--------------------------------------------------------------------------------------------------------




----------------------------------------- Iteration    1(   7)  ---------------------------------------


    POTLOK:  cpu time    0.1400: real time    0.1392
    SETDIJ:  cpu time    0.0480: real time    0.0471
    TRIAL :  cpu time 2818.6282: real time 2829.1128
    CORREC:  cpu time    0.0320: real time    0.0317
    CHARGE:  cpu time    1.8481: real time    1.8520
    --------------------------------------------
      LOOP:  cpu time 2820.7003: real time 2831.2325

 eigenvalue-minimisations  :     0
 total energy-change (2. order) :-0.3023526E-03  (-0.1747035E-03)
 number of electron     335.9999808 magnetization 
 augmentation part       12.7160028 magnetization 

 Free energy of the ion-electron system (eV)
  ---------------------------------------------------
  alpha Z        PSCENC =       567.60656902
  Ewald energy   TEWEN  =    -15322.50184449
  -Hartree energ DENC   =     -5536.61491340
  -exchange      EXHF   =       758.66090892
  -V(xc)+E(xc)   XCENC  =      -335.25737803
  PAW double counting   =     36221.58459418   -35168.80430940
  entropy T*S    EENTRO =        -0.00000000
  eigenvalues    EBANDS =     -1439.95320329
  atomic energy  EATOM  =     19973.09518185
  ---------------------------------------------------
  free energy    TOTEN  =      -282.18439464 eV

  energy without entropy =     -282.18439464  energy(sigma->0) =     -282.18439464
  exchange ACFDT corr.  =        -0.00000000  see jH, gK, PRB 81, 115126


--------------------------------------------------------------------------------------------------------




----------------------------------------- Iteration    1(   8)  ---------------------------------------


    POTLOK:  cpu time    0.1400: real time    0.1420
    SETDIJ:  cpu time    0.0480: real time    0.0473
    TRIAL :  cpu time 2800.6310: real time 2811.1422
    CORREC:  cpu time    0.0200: real time    0.0180
    CHARGE:  cpu time    1.8281: real time    1.8321
    --------------------------------------------
      LOOP:  cpu time 2802.6712: real time 2813.1888

 eigenvalue-minimisations  :     0
 total energy-change (2. order) :-0.1474475E-03  (-0.8214142E-04)
 number of electron     335.9999808 magnetization 
 augmentation part       12.7146967 magnetization 

 Free energy of the ion-electron system (eV)
  ---------------------------------------------------
  alpha Z        PSCENC =       567.60656902
  Ewald energy   TEWEN  =    -15322.50184449
  -Hartree energ DENC   =     -5536.62085625
  -exchange      EXHF   =       758.66282268
  -V(xc)+E(xc)   XCENC  =      -335.25725787
  PAW double counting   =     36222.63818173   -35169.85789037
  entropy T*S    EENTRO =        -0.00000000
  eigenvalues    EBANDS =     -1439.94944840
  atomic energy  EATOM  =     19973.09518185
  ---------------------------------------------------
  free energy    TOTEN  =      -282.18454209 eV

  energy without entropy =     -282.18454209  energy(sigma->0) =     -282.18454209
  exchange ACFDT corr.  =        -0.00000000  see jH, gK, PRB 81, 115126


--------------------------------------------------------------------------------------------------------




----------------------------------------- Iteration    1(   9)  ---------------------------------------


    POTLOK:  cpu time    0.1360: real time    0.1360
    SETDIJ:  cpu time    0.0440: real time    0.0444
    TRIAL :  cpu time 2816.2520: real time 2827.2801
    CORREC:  cpu time    0.0440: real time    0.0424
    CHARGE:  cpu time    1.8321: real time    1.8346
    --------------------------------------------
      LOOP:  cpu time 2818.3121: real time 2829.3694

 eigenvalue-minimisations  :     0
 total energy-change (2. order) :-0.6924239E-04  (-0.3777869E-04)
 number of electron     335.9999808 magnetization 
 augmentation part       12.7139595 magnetization 

 Free energy of the ion-electron system (eV)
  ---------------------------------------------------
  alpha Z        PSCENC =       567.60656902
  Ewald energy   TEWEN  =    -15322.50184449
  -Hartree energ DENC   =     -5536.61936253
  -exchange      EXHF   =       758.66380346
  -V(xc)+E(xc)   XCENC  =      -335.25752719
  PAW double counting   =     36223.29962653   -35170.51908836
  entropy T*S    EENTRO =        -0.00000000
  eigenvalues    EBANDS =     -1439.95196962
  atomic energy  EATOM  =     19973.09518185
  ---------------------------------------------------
  free energy    TOTEN  =      -282.18461133 eV

  energy without entropy =     -282.18461133  energy(sigma->0) =     -282.18461133
  exchange ACFDT corr.  =        -0.00000000  see jH, gK, PRB 81, 115126


--------------------------------------------------------------------------------------------------------




----------------------------------------- Iteration    1(  10)  ---------------------------------------


    POTLOK:  cpu time    0.1360: real time    0.1360
    SETDIJ:  cpu time    0.0520: real time    0.0484
    TRIAL :  cpu time 2821.5083: real time 2831.9022
    CORREC:  cpu time    0.0880: real time    0.0906
    CHARGE:  cpu time    1.8201: real time    1.8219
    --------------------------------------------
      LOOP:  cpu time 2823.6045: real time 2834.0069

 eigenvalue-minimisations  :     0
 total energy-change (2. order) :-0.3247828E-04  (-0.1706162E-04)
 number of electron     335.9999808 magnetization 
 augmentation part       12.7134341 magnetization 

 Free energy of the ion-electron system (eV)
  ---------------------------------------------------
  alpha Z        PSCENC =       567.60656902
  Ewald energy   TEWEN  =    -15322.50184449
  -Hartree energ DENC   =     -5536.65112222
  -exchange      EXHF   =       758.66519068
  -V(xc)+E(xc)   XCENC  =      -335.25702096
  PAW double counting   =     36223.57604010   -35170.79689215
  entropy T*S    EENTRO =        -0.00000000
  eigenvalues    EBANDS =     -1439.92074564
  atomic energy  EATOM  =     19973.09518185
  ---------------------------------------------------
  free energy    TOTEN  =      -282.18464381 eV

  energy without entropy =     -282.18464381  energy(sigma->0) =     -282.18464381
  exchange ACFDT corr.  =        -0.00000000  see jH, gK, PRB 81, 115126


--------------------------------------------------------------------------------------------------------




----------------------------------------- Iteration    1(  11)  ---------------------------------------


    POTLOK:  cpu time    0.1360: real time    0.1359
    SETDIJ:  cpu time    0.0480: real time    0.0493
    TRIAL :  cpu time 2827.8327: real time 2838.1678
    CORREC:  cpu time    0.0040: real time    0.0057
    CHARGE:  cpu time    1.8001: real time    1.8000
    --------------------------------------------
      LOOP:  cpu time 2829.8249: real time 2840.1855

 eigenvalue-minimisations  :     0
 total energy-change (2. order) :-0.1500646E-04  (-0.7588131E-05)
 number of electron     335.9999808 magnetization 
 augmentation part       12.7129953 magnetization 

 Free energy of the ion-electron system (eV)
  ---------------------------------------------------
  alpha Z        PSCENC =       567.60656902
  Ewald energy   TEWEN  =    -15322.50184449
  -Hartree energ DENC   =     -5536.67768421
  -exchange      EXHF   =       758.66631795
  -V(xc)+E(xc)   XCENC  =      -335.25654601
  PAW double counting   =     36223.67402035   -35170.89607859
  entropy T*S    EENTRO =        -0.00000000
  eigenvalues    EBANDS =     -1439.89459469
  atomic energy  EATOM  =     19973.09518185
  ---------------------------------------------------
  free energy    TOTEN  =      -282.18465882 eV

  energy without entropy =     -282.18465882  energy(sigma->0) =     -282.18465882
  exchange ACFDT corr.  =        -0.00000000  see jH, gK, PRB 81, 115126


--------------------------------------------------------------------------------------------------------




----------------------------------------- Iteration    1(  12)  ---------------------------------------


    POTLOK:  cpu time    0.1280: real time    0.1387
    SETDIJ:  cpu time    0.0520: real time    0.0487
    TRIAL :  cpu time 2852.3783: real time 2862.9634
    CORREC:  cpu time    0.0760: real time    0.0771
    CHARGE:  cpu time    1.8481: real time    1.8490
    --------------------------------------------
      LOOP:  cpu time 2854.4864: real time 2865.1090

 eigenvalue-minimisations  :     0
 total energy-change (2. order) :-0.6785958E-05  (-0.3336722E-05)
 number of electron     335.9999808 magnetization 
 augmentation part       12.7126900 magnetization 

 Free energy of the ion-electron system (eV)
  ---------------------------------------------------
  alpha Z        PSCENC =       567.60656902
  Ewald energy   TEWEN  =    -15322.50184449
  -Hartree energ DENC   =     -5536.68599838
  -exchange      EXHF   =       758.66689540
  -V(xc)+E(xc)   XCENC  =      -335.25643494
  PAW double counting   =     36223.75359340   -35170.97605844
  entropy T*S    EENTRO =        -0.00000000
  eigenvalues    EBANDS =     -1439.88656903
  atomic energy  EATOM  =     19973.09518185
  ---------------------------------------------------
  free energy    TOTEN  =      -282.18466560 eV

  energy without entropy =     -282.18466560  energy(sigma->0) =     -282.18466560
  exchange ACFDT corr.  =        -0.00000000  see jH, gK, PRB 81, 115126


--------------------------------------------------------------------------------------------------------


  average scaling for gradient   1.2650


 average (electrostatic) potential at core
  the test charge radii are     1.0698  1.4837  0.9698
  (the norm of the test charge is              1.0000)
       1 -31.2983       2 -31.2983       3 -31.2983       4 -31.2983       5 -31.2983
       6 -31.2983       7 -31.2983       8 -31.2983       9 -35.5815      10 -35.5815
      11 -35.5815      12 -35.5815      13 -35.5816      14 -35.5816      15 -35.5816
      16 -35.5816      17 -35.5815      18 -35.5815      19 -35.5815      20 -35.5815
      21 -35.5816      22 -35.5816      23 -35.5815      24 -35.5816      25 -83.7418
      26 -83.7418      27 -83.7418      28 -83.7418      29 -83.7418      30 -83.7418
      31 -83.7417      32 -83.7418      33 -83.7418      34 -83.7418      35 -83.7418
      36 -83.7418      37 -83.7418      38 -83.7417      39 -83.7418      40 -83.7418
      41 -83.7418      42 -83.7418      43 -83.7418      44 -83.7417      45 -83.7418
      46 -83.7418      47 -83.7418      48 -83.7418      49 -83.7418      50 -83.7418
      51 -83.7418      52 -83.7418      53 -83.7418      54 -83.7418      55 -83.7418
      56 -83.7417
 
 
 
 E-fermi :   2.3640     XC(G=0):  -7.2824     alpha+bet : -8.9808


 k-point     1 :       0.0000    0.0000    0.0000
  band No.  band energies     occupation 
      1     -12.4484      2.00000
      2     -11.9093      2.00000
      3     -11.9092      2.00000
      4     -11.9092      2.00000
      5     -11.9092      2.00000
      6     -11.9092      2.00000
      7     -11.9092      2.00000
      8     -11.3652      2.00000
      9     -11.1906      2.00000
     10     -11.1906      2.00000
     11     -11.1906      2.00000
     12     -11.1906      2.00000
     13     -11.1906      2.00000
     14     -11.1906      2.00000
     15     -11.1682      2.00000
     16     -11.1682      2.00000
     17     -11.1682      2.00000
     18     -11.0485      2.00000
     19     -11.0484      2.00000
     20     -11.0484      2.00000
     21     -11.0484      2.00000
     22     -11.0484      2.00000
     23     -11.0484      2.00000
     24     -10.7444      2.00000
     25     -10.7444      2.00000
     26     -10.7444      2.00000
     27     -10.7333      2.00000
     28     -10.7333      2.00000
     29     -10.7333      2.00000
     30     -10.7333      2.00000
     31     -10.7333      2.00000
     32     -10.7333      2.00000
     33      -7.1510      2.00000
     34      -7.1510      2.00000
     35      -7.1510      2.00000
     36      -7.1510      2.00000
     37      -7.1510      2.00000
     38      -7.1510      2.00000
     39      -7.0663      2.00000
     40      -7.0663      2.00000
     41      -7.0663      2.00000
     42      -7.0663      2.00000
     43      -7.0663      2.00000
     44      -7.0663      2.00000
     45      -7.0121      2.00000
     46      -7.0121      2.00000
     47      -6.9965      2.00000
     48      -6.9965      2.00000
     49      -6.9965      2.00000
     50      -6.9901      2.00000
     51      -6.9901      2.00000
     52      -6.9901      2.00000
     53      -6.9901      2.00000
     54      -6.9901      2.00000
     55      -6.9901      2.00000
     56      -6.9888      2.00000
     57      -6.9888      2.00000
     58      -6.9888      2.00000
     59      -6.9888      2.00000
     60      -6.9888      2.00000
     61      -6.9888      2.00000
     62      -6.9835      2.00000
     63      -6.9835      2.00000
     64      -6.9835      2.00000
     65      -6.9742      2.00000
     66      -6.9742      2.00000
     67      -6.9564      2.00000
     68      -6.9564      2.00000
     69      -6.9564      2.00000
     70      -6.9564      2.00000
     71      -6.9564      2.00000
     72      -6.9563      2.00000
     73      -4.3051      2.00000
     74      -4.1641      2.00000
     75      -4.1641      2.00000
     76      -4.1641      2.00000
     77      -3.6475      2.00000
     78      -3.6475      2.00000
     79      -3.6475      2.00000
     80      -3.6475      2.00000
     81      -3.6475      2.00000
     82      -3.6475      2.00000
     83      -3.5983      2.00000
     84      -3.2210      2.00000
     85      -3.2210      2.00000
     86      -3.2210      2.00000
     87      -3.2210      2.00000
     88      -3.2210      2.00000
     89      -3.2210      2.00000
     90      -2.3795      2.00000
     91      -2.3795      2.00000
     92      -2.2320      2.00000
     93      -2.2320      2.00000
     94      -2.2320      2.00000
     95      -2.2320      2.00000
     96      -2.2320      2.00000
     97      -2.2320      2.00000
     98      -1.5351      2.00000
     99      -1.5351      2.00000
    100      -1.5351      2.00000
    101      -1.5351      2.00000
    102      -1.5351      2.00000
    103      -1.5351      2.00000
    104      -1.1284      2.00000
    105      -1.1284      2.00000
    106      -1.1284      2.00000
    107      -1.1284      2.00000
    108      -1.1284      2.00000
    109      -1.1283      2.00000
    110      -0.9228      2.00000
    111      -0.9228      2.00000
    112      -0.9228      2.00000
    113      -0.9228      2.00000
    114      -0.9228      2.00000
    115      -0.9228      2.00000
    116      -0.8577      2.00000
    117      -0.8577      2.00000
    118      -0.8577      2.00000
    119      -0.8577      2.00000
    120      -0.8577      2.00000
    121      -0.8577      2.00000
    122      -0.7783      2.00000
    123      -0.7783      2.00000
    124      -0.7783      2.00000
    125      -0.2990      2.00000
    126      -0.2990      2.00000
    127      -0.2990      2.00000
    128      -0.1738      2.00000
    129      -0.1738      2.00000
    130      -0.1738      2.00000
    131      -0.1738      2.00000
    132      -0.1738      2.00000
    133      -0.1738      2.00000
    134       0.1537      2.00000
    135       0.1537      2.00000
    136       0.1537      2.00000
    137       0.1537      2.00000
    138       0.1537      2.00000
    139       0.1537      2.00000
    140       0.4645      2.00000
    141       0.4645      2.00000
    142       0.4645      2.00000
    143       0.4645      2.00000
    144       0.4645      2.00000
    145       0.4645      2.00000
    146       0.9829      2.00000
    147       0.9829      2.00000
    148       0.9829      2.00000
    149       1.0848      2.00000
    150       1.0848      2.00000
    151       1.0848      2.00000
    152       1.0848      2.00000
    153       1.0848      2.00000
    154       1.0848      2.00000
    155       1.1571      2.00000
    156       1.1571      2.00000
    157       1.1571      2.00000
    158       1.2301      2.00000
    159       1.2301      2.00000
    160       1.3203      2.00000
    161       1.3203      2.00000
    162       1.3203      2.00000
    163       1.3203      2.00000
    164       1.3203      2.00000
    165       1.3203      2.00000
    166       1.3375      2.00000
    167       1.3375      2.00000
    168       1.3375      2.00000
    169       4.0805      0.00000
    170       4.9882      0.00000
    171       4.9882      0.00000
    172       4.9882      0.00000
    173       5.5722      0.00000
    174       6.3174      0.00000
    175       6.3174      0.00000
    176       6.3174      0.00000
    177       6.3174      0.00000
    178       6.3174      0.00000
    179       6.3174      0.00000
    180       6.6285      0.00000
    181       6.6285      0.00000
    182       6.6285      0.00000
    183       6.6285      0.00000
    184       6.6285      0.00000
    185       6.6285      0.00000
    186       7.0511      0.00000
    187       7.4546      0.00000
    188       7.4546      0.00000
    189       7.4546      0.00000
    190       7.8551      0.00000
    191       7.8551      0.00000
    192       7.8551      0.00000
    193       7.8551      0.00000
    194       7.8551      0.00000
    195       7.8551      0.00000
    196       8.5911      0.00000
    197       8.5911      0.00000
    198       8.5911      0.00000
    199       8.5911      0.00000
    200       8.5911      0.00000
    201       8.5912      0.00000
    202       8.8736      0.00000
    203       8.8736      0.00000
    204       8.8736      0.00000
    205       8.8736      0.00000
    206       8.8737      0.00000
    207       8.8738      0.00000
    208       9.1952      0.00000
    209       9.1952      0.00000
    210       9.1953      0.00000
    211       9.4662      0.00000
    212       9.4662      0.00000
    213       9.9409      0.00000
    214       9.9411      0.00000
    215       9.9411      0.00000
    216       9.9415      0.00000
    217       9.9417      0.00000
[...]


 


 total charge     
 
# of ion     s       p       d       tot
----------------------------------------
  1        0.380   0.282   9.600  10.262
  2        0.380   0.282   9.600  10.262
  3        0.380   0.282   9.600  10.262
  4        0.380   0.282   9.600  10.262
  5        0.380   0.282   9.600  10.262
  6        0.380   0.282   9.600  10.262
  7        0.380   0.282   9.600  10.262
  8        0.380   0.282   9.600  10.262
  9        1.023   1.222   0.349   2.594
 10        1.023   1.222   0.349   2.594
 11        1.023   1.222   0.349   2.594
 12        1.023   1.222   0.349   2.594
 13        1.023   1.222   0.349   2.594
 14        1.023   1.222   0.349   2.594
 15        1.023   1.222   0.349   2.594
 16        1.023   1.222   0.349   2.594
 17        1.023   1.222   0.349   2.594
 18        1.023   1.222   0.349   2.594
 19        1.023   1.222   0.349   2.594
 20        1.023   1.222   0.349   2.594
 21        1.023   1.222   0.349   2.594
 22        1.023   1.222   0.349   2.594
 23        1.023   1.222   0.349   2.594
 24        1.023   1.222   0.349   2.594
 25        1.328   2.398   0.000   3.726
 26        1.328   2.399   0.000   3.727
 27        1.328   2.399   0.000   3.727
 28        1.328   2.399   0.000   3.727
 29        1.328   2.399   0.000   3.727
 30        1.328   2.400   0.000   3.727
 31        1.328   2.399   0.000   3.727
 32        1.328   2.398   0.000   3.726
 33        1.328   2.398   0.000   3.726
 34        1.328   2.399   0.000   3.727
 35        1.328   2.399   0.000   3.727
 36        1.328   2.399   0.000   3.727
 37        1.328   2.399   0.000   3.727
 38        1.328   2.399   0.000   3.727
 39        1.328   2.399   0.000   3.727
 40        1.328   2.398   0.000   3.726
 41        1.328   2.398   0.000   3.726
 42        1.328   2.399   0.000   3.727
 43        1.328   2.399   0.000   3.727
 44        1.328   2.399   0.000   3.727
 45        1.328   2.399   0.000   3.727
 46        1.328   2.399   0.000   3.727
 47        1.328   2.399   0.000   3.727
 48        1.328   2.398   0.000   3.726
 49        1.328   2.398   0.000   3.726
 50        1.328   2.399   0.000   3.727
 51        1.328   2.399   0.000   3.727
 52        1.328   2.400   0.000   3.727
 53        1.328   2.399   0.000   3.727
 54        1.328   2.399   0.000   3.727
 55        1.328   2.399   0.000   3.727
 56        1.328   2.398   0.000   3.726
------------------------------------------------
tot       61.899  98.568  82.389 242.856
 
    FORLOC:  cpu time    0.0280: real time    0.0273
    FORHF :  cpu time10249.6486: real time10286.1773
    FORNL :  cpu time   12.8408: real time   12.8949
    STRESS:  cpu time   37.1463: real time   37.2597
    FORCOR:  cpu time    0.1320: real time    0.1354
    OFIELD:  cpu time    0.0000: real time    0.0002

  FORCE on cell =-STRESS in cart. coord.  units (eV):
  Direction    XX          YY          ZZ          XY          YZ          ZX
  --------------------------------------------------------------------------------------
  Alpha Z   567.60657   567.60657   567.60657
  Ewald   -5107.52606 -5107.52606 -5107.52606    -0.00012    -0.00012    -0.00012
  Hartree  1845.56267  1845.56266  1845.56275    -0.00001    -0.00001    -0.00002
  E(xc)   -1048.49165 -1048.49165 -1048.49165    -0.00000    -0.00000     0.00000
  Local   -1642.16319 -1642.16313 -1642.16412     0.00009     0.00007     0.00014
  n-local  2346.55316  2347.58819  2347.45630    -1.28313    -0.46752    -0.46746
  augment  -429.08532  -429.08531  -429.08541    -0.00000    -0.00000     0.00000
  Kinetic  4001.11697  4002.95627  4001.43741    -2.21525    -0.82147    -0.82149
  Fock            NaN         NaN         NaN         NaN         NaN         NaN
  -------------------------------------------------------------------------------------
  Total           NaN         NaN         NaN         NaN         NaN         NaN
  in kB           NaN         NaN         NaN         NaN         NaN         NaN
  external pressure =         NaN kB  Pullay stress =        0.00 kB


 VOLUME and BASIS-vectors are now :
 -----------------------------------------------------------------------------
  energy-cutoff  :      400.00
  volume of cell :     1345.14
      direct lattice vectors                 reciprocal lattice vectors
    11.038810057  0.000000000  0.000000000     0.090589474  0.000000000  0.000000000
     0.000000000 11.038810057  0.000000000     0.000000000  0.090589474  0.000000000
     0.000000000  0.000000000 11.038810057     0.000000000  0.000000000  0.090589474

  length of vectors
    11.038810057 11.038810057 11.038810057     0.090589474  0.090589474  0.090589474


 FORCES acting on ions:
    Electron-Ion                     Ewald-Force                    Non-Local-Force
 -----------------------------------------------------------------------------------------------
   0.330E-04 -.235E-04 0.398E-04   0.457E-05 -.457E-05 0.457E-05   -.542E-18 0.257E-18 -.121E-17
   -.142E-04 0.537E-04 -.260E-04   -.137E-04 -.137E-04 -.137E-04   -.840E-18 -.136E-18 -.257E-18
   0.285E-04 0.246E-04 -.775E-05   0.457E-05 0.457E-05 -.457E-05   0.976E-18 -.176E-18 0.298E-18
   -.303E-04 -.748E-04 -.297E-04   -.137E-04 0.137E-04 0.137E-04   0.271E-18 -.461E-18 0.106E-17
   -.743E-05 0.945E-05 -.330E-05   -.457E-05 -.457E-05 -.457E-05   -.325E-18 -.610E-18 0.786E-18
   0.329E-04 0.705E-04 0.880E-04   0.137E-04 -.137E-04 0.137E-04   0.325E-18 0.949E-18 -.271E-19
   -.363E-05 0.304E-04 0.167E-04   -.457E-05 0.457E-05 0.457E-05   -.271E-18 -.664E-18 0.949E-19
   0.267E-04 -.706E-04 -.341E-04   0.137E-04 0.137E-04 -.137E-04   0.569E-18 0.732E-18 -.637E-18
   -.222E-04 0.274E-04 0.763E-05   0.909E-05 0.909E-05 -.790E-05   0.424E-21 0.291E-21 0.106E-21
   -.984E-05 -.987E-05 0.890E-05   -.850E-05 -.425E-05 -.425E-05   -.476E-21 -.768E-21 0.291E-21
   0.116E-04 -.484E-05 0.559E-05   -.425E-05 -.425E-05 -.850E-05   0.596E-21 -.212E-21 -.688E-21
   0.213E-04 0.117E-04 -.130E-04   -.485E-05 0.909E-05 0.365E-05   -.536E-21 -.587E-22 0.000E+00
   -.211E-05 -.370E-04 0.143E-04   0.909E-05 -.790E-05 0.909E-05   0.238E-21 0.847E-21 0.467E-21
   -.145E-04 0.203E-04 -.189E-04   -.969E-05 0.545E-05 0.545E-05   -.543E-21 -.291E-21 0.000E+00
   -.737E-05 -.222E-05 -.553E-05   -.485E-05 0.365E-05 0.909E-05   0.510E-21 -.371E-21 0.185E-21
   0.122E-04 -.108E-04 0.109E-05   -.425E-05 -.850E-05 -.425E-05   -.688E-21 0.900E-21 -.371E-21
   0.962E-07 0.388E-04 -.288E-04   -.790E-05 0.909E-05 0.909E-05   0.424E-21 -.111E-20 -.582E-21
   0.132E-04 -.803E-05 0.604E-05   0.909E-05 -.485E-05 0.365E-05   0.529E-21 -.635E-21 0.318E-21
   0.563E-05 0.327E-07 0.798E-05   0.365E-05 -.485E-05 0.909E-05   0.000E+00 0.278E-21 -.265E-22
   -.177E-04 0.498E-05 -.218E-05   0.365E-05 0.909E-05 -.485E-05   -.821E-21 0.212E-21 0.212E-21
   0.814E-05 -.367E-04 0.138E-05   -.103E-04 -.103E-04 -.103E-04   0.132E-21 -.371E-21 -.132E-22
   0.995E-05 0.212E-04 0.100E-04   0.909E-05 0.365E-05 -.485E-05   -.463E-22 0.170E-21 -.794E-22
   0.146E-05 0.235E-05 0.159E-05   0.545E-05 0.545E-05 -.969E-05   -.794E-21 0.192E-21 0.000E+00
   -.322E-04 -.142E-04 0.769E-05   0.545E-05 -.969E-05 0.545E-05   0.132E-21 0.794E-21 0.265E-21
   0.350E+02 0.350E+02 0.350E+02   -.356E+02 -.356E+02 -.356E+02   0.540E+00 0.540E+00 0.540E+00
   -.350E+02 0.350E+02 -.350E+02   0.356E+02 -.356E+02 0.356E+02   -.540E+00 0.540E+00 -.540E+00
   -.350E+02 -.350E+02 0.350E+02   0.356E+02 0.356E+02 -.356E+02   -.540E+00 -.540E+00 0.540E+00
   -.350E+02 0.350E+02 0.350E+02   0.356E+02 -.356E+02 -.356E+02   -.540E+00 0.540E+00 0.540E+00
   0.350E+02 -.350E+02 -.350E+02   -.356E+02 0.356E+02 0.356E+02   0.540E+00 -.540E+00 -.540E+00
   0.350E+02 -.350E+02 0.350E+02   -.356E+02 0.356E+02 -.356E+02   0.540E+00 -.540E+00 0.540E+00
   0.350E+02 0.350E+02 -.350E+02   -.356E+02 -.356E+02 0.356E+02   0.540E+00 0.540E+00 -.540E+00
   -.350E+02 -.350E+02 -.350E+02   0.356E+02 0.356E+02 0.356E+02   -.540E+00 -.540E+00 -.540E+00
   0.350E+02 0.350E+02 0.350E+02   -.356E+02 -.356E+02 -.356E+02   0.540E+00 0.540E+00 0.540E+00
   -.350E+02 0.350E+02 -.350E+02   0.356E+02 -.356E+02 0.356E+02   -.540E+00 0.540E+00 -.540E+00
   -.350E+02 -.350E+02 0.350E+02   0.356E+02 0.356E+02 -.356E+02   -.540E+00 -.540E+00 0.540E+00
   -.350E+02 0.350E+02 0.350E+02   0.356E+02 -.356E+02 -.356E+02   -.540E+00 0.540E+00 0.540E+00
   0.350E+02 -.350E+02 -.350E+02   -.356E+02 0.356E+02 0.356E+02   0.540E+00 -.540E+00 -.540E+00
   0.350E+02 -.350E+02 0.350E+02   -.356E+02 0.356E+02 -.356E+02   0.540E+00 -.540E+00 0.540E+00
   0.350E+02 0.350E+02 -.350E+02   -.356E+02 -.356E+02 0.356E+02   0.540E+00 0.540E+00 -.540E+00
   -.350E+02 -.350E+02 -.350E+02   0.356E+02 0.356E+02 0.356E+02   -.540E+00 -.540E+00 -.540E+00
   0.350E+02 0.350E+02 0.350E+02   -.356E+02 -.356E+02 -.356E+02   0.540E+00 0.540E+00 0.540E+00
   -.350E+02 0.350E+02 -.350E+02   0.356E+02 -.356E+02 0.356E+02   -.540E+00 0.540E+00 -.540E+00
   -.350E+02 -.350E+02 0.350E+02   0.356E+02 0.356E+02 -.356E+02   -.540E+00 -.540E+00 0.540E+00
   -.350E+02 0.350E+02 0.350E+02   0.356E+02 -.356E+02 -.356E+02   -.540E+00 0.540E+00 0.540E+00
   0.350E+02 -.350E+02 -.350E+02   -.356E+02 0.356E+02 0.356E+02   0.540E+00 -.540E+00 -.540E+00
   0.350E+02 -.350E+02 0.350E+02   -.356E+02 0.356E+02 -.356E+02   0.540E+00 -.540E+00 0.540E+00
   0.350E+02 0.350E+02 -.350E+02   -.356E+02 -.356E+02 0.356E+02   0.540E+00 0.540E+00 -.540E+00
   -.350E+02 -.350E+02 -.350E+02   0.356E+02 0.356E+02 0.356E+02   -.540E+00 -.540E+00 -.540E+00
   0.350E+02 0.350E+02 0.350E+02   -.356E+02 -.356E+02 -.356E+02   0.540E+00 0.540E+00 0.540E+00
   -.350E+02 0.350E+02 -.350E+02   0.356E+02 -.356E+02 0.356E+02   -.540E+00 0.540E+00 -.540E+00
   -.350E+02 -.350E+02 0.350E+02   0.356E+02 0.356E+02 -.356E+02   -.540E+00 -.540E+00 0.540E+00
   -.350E+02 0.350E+02 0.350E+02   0.356E+02 -.356E+02 -.356E+02   -.540E+00 0.540E+00 0.540E+00
   0.350E+02 -.350E+02 -.350E+02   -.356E+02 0.356E+02 0.356E+02   0.540E+00 -.540E+00 -.540E+00
   0.350E+02 -.350E+02 0.350E+02   -.356E+02 0.356E+02 -.356E+02   0.540E+00 -.540E+00 0.540E+00
   0.350E+02 0.350E+02 -.350E+02   -.356E+02 -.356E+02 0.356E+02   0.540E+00 0.540E+00 -.540E+00
   -.350E+02 -.350E+02 -.350E+02   0.356E+02 0.356E+02 0.356E+02   -.540E+00 -.540E+00 -.540E+00
 -----------------------------------------------------------------------------------------------
   -.167E-03 0.660E-04 0.131E-03   -.234E-12 -.426E-13 0.142E-13   0.144E-14 0.444E-15 -.666E-15
 
 
 POSITION                                       TOTAL-FORCE (eV/Angst)
 -----------------------------------------------------------------------------------
      2.75970      8.27911      2.75970              NaN           NaN           NaN
      5.51941      5.51941      5.51941              NaN           NaN           NaN
      2.75970      2.75970      8.27911              NaN           NaN           NaN
      5.51941      0.00000      0.00000              NaN           NaN           NaN
      8.27911      8.27911      8.27911              NaN           NaN           NaN
      0.00000      5.51941      0.00000              NaN           NaN           NaN
      8.27911      2.75970      2.75970              NaN           NaN           NaN
      0.00000      0.00000      5.51941              NaN           NaN           NaN
      6.89926      6.89926      1.37985              NaN           NaN           NaN
      1.37985      9.65896      9.65896              NaN           NaN           NaN
      9.65896      9.65896      1.37985              NaN           NaN           NaN
      9.65896      6.89926      4.13955              NaN           NaN           NaN
      6.89926      1.37985      6.89926              NaN           NaN           NaN
      1.37985      4.13955      4.13955              NaN           NaN           NaN
      9.65896      4.13955      6.89926              NaN           NaN           NaN
      9.65896      1.37985      9.65896              NaN           NaN           NaN
      1.37985      6.89926      6.89926              NaN           NaN           NaN
      6.89926      9.65896      4.13955              NaN           NaN           NaN
      4.13955      9.65896      6.89926              NaN           NaN           NaN
      4.13955      6.89926      9.65896              NaN           NaN           NaN
      1.37985      1.37985      1.37985              NaN           NaN           NaN
      6.89926      4.13955      9.65896              NaN           NaN           NaN
      4.13955      4.13955      1.37985              NaN           NaN           NaN
      4.13955      1.37985      4.13955              NaN           NaN           NaN
      9.55381      9.55381      4.03440              NaN           NaN           NaN
      7.00441      9.55381      1.48500              NaN           NaN           NaN
      7.00441      7.00441      4.03440              NaN           NaN           NaN
      9.76411      6.79410      6.79410              NaN           NaN           NaN
      9.55381      7.00441      1.48500              NaN           NaN           NaN
      1.27470      4.24471      6.79410              NaN           NaN           NaN
      1.27470      6.79410      4.24471              NaN           NaN           NaN
      9.76411      4.24471      4.24471              NaN           NaN           NaN
      9.55381      4.03440      9.55381              NaN           NaN           NaN
      7.00441      4.03440      7.00441              NaN           NaN           NaN
      7.00441      1.48500      9.55381              NaN           NaN           NaN
      9.76411      1.27470      1.27470              NaN           NaN           NaN
      9.55381      1.48500      7.00441              NaN           NaN           NaN
      1.27470      9.76411      1.27470              NaN           NaN           NaN
      1.27470      1.27470      9.76411              NaN           NaN           NaN
      9.76411      9.76411      9.76411              NaN           NaN           NaN
      4.03440      9.55381      9.55381              NaN           NaN           NaN
      1.48500      9.55381      7.00441              NaN           NaN           NaN
      1.48500      7.00441      9.55381              NaN           NaN           NaN
      4.24471      6.79410      1.27470              NaN           NaN           NaN
      4.03440      7.00441      7.00441              NaN           NaN           NaN
      6.79410      4.24471      1.27470              NaN           NaN           NaN
      6.79410      6.79410      9.76411              NaN           NaN           NaN
      4.24471      4.24471      9.76411              NaN           NaN           NaN
      4.03440      4.03440      4.03440              NaN           NaN           NaN
      1.48500      4.03440      1.48500              NaN           NaN           NaN
      1.48500      1.48500      4.03440              NaN           NaN           NaN
      4.24471      1.27470      6.79410              NaN           NaN           NaN
      4.03440      1.48500      1.48500              NaN           NaN           NaN
      6.79410      9.76411      6.79410              NaN           NaN           NaN
      6.79410      1.27470      4.24471              NaN           NaN           NaN
      4.24471      9.76411      4.24471              NaN           NaN           NaN
 -----------------------------------------------------------------------------------
    total drift:                                     NaN           NaN           NaN


--------------------------------------------------------------------------------------------------------



  FREE ENERGIE OF THE ION-ELECTRON SYSTEM (eV)
  ---------------------------------------------------
  free  energy   TOTEN  =      -282.18466560 eV

  energy  without entropy=     -282.18466560  energy(sigma->0) =     -282.18466560
 


--------------------------------------------------------------------------------------------------------


    POTLOK:  cpu time    0.1920: real time    0.1888


--------------------------------------------------------------------------------------------------------


 writing wavefunctions
     LOOP+:  cpu time44213.1832: real time44410.7400
    4ORBIT:  cpu time    0.0000: real time    0.0000
 


 total charge     
 
# of ion     s       p       d       tot
----------------------------------------
  1        0.380   0.282   9.600  10.262
  2        0.380   0.282   9.600  10.262
  3        0.380   0.282   9.600  10.262
  4        0.380   0.282   9.600  10.262
  5        0.380   0.282   9.600  10.262
  6        0.380   0.282   9.600  10.262
  7        0.380   0.282   9.600  10.262
  8        0.380   0.282   9.600  10.262
  9        1.023   1.222   0.349   2.594
 10        1.023   1.222   0.349   2.594
 11        1.023   1.222   0.349   2.594
 12        1.023   1.222   0.349   2.594
 13        1.023   1.222   0.349   2.594
 14        1.023   1.222   0.349   2.594
 15        1.023   1.222   0.349   2.594
 16        1.023   1.222   0.349   2.594
 17        1.023   1.222   0.349   2.594
 18        1.023   1.222   0.349   2.594
 19        1.023   1.222   0.349   2.594
 20        1.023   1.222   0.349   2.594
 21        1.023   1.222   0.349   2.594
 22        1.023   1.222   0.349   2.594
 23        1.023   1.222   0.349   2.594
 24        1.023   1.222   0.349   2.594
 25        1.328   2.398   0.000   3.726
 26        1.328   2.399   0.000   3.727
 27        1.328   2.399   0.000   3.727
 28        1.328   2.399   0.000   3.727
 29        1.328   2.399   0.000   3.727
 30        1.328   2.400   0.000   3.727
 31        1.328   2.399   0.000   3.727
 32        1.328   2.398   0.000   3.726
 33        1.328   2.398   0.000   3.726
 34        1.328   2.399   0.000   3.727
 35        1.328   2.399   0.000   3.727
 36        1.328   2.399   0.000   3.727
 37        1.328   2.399   0.000   3.727
 38        1.328   2.399   0.000   3.727
 39        1.328   2.399   0.000   3.727
 40        1.328   2.398   0.000   3.726
 41        1.328   2.398   0.000   3.726
 42        1.328   2.399   0.000   3.727
 43        1.328   2.399   0.000   3.727
 44        1.328   2.399   0.000   3.727
 45        1.328   2.399   0.000   3.727
 46        1.328   2.399   0.000   3.727
 47        1.328   2.399   0.000   3.727
 48        1.328   2.398   0.000   3.726
 49        1.328   2.398   0.000   3.726
 50        1.328   2.399   0.000   3.727
 51        1.328   2.399   0.000   3.727
 52        1.328   2.400   0.000   3.727
 53        1.328   2.399   0.000   3.727
 54        1.328   2.399   0.000   3.727
 55        1.328   2.399   0.000   3.727
 56        1.328   2.398   0.000   3.726
------------------------------------------------
tot       61.899  98.568  82.389 242.856
 

 total amount of memory used by VASP on root node   253709. kBytes
========================================================================

   base      :      30000. kBytes
   nonl-proj :     138805. kBytes
   fftplans  :       2873. kBytes
   grid      :      17694. kBytes
   one-center:        870. kBytes
   HF        :        194. kBytes
   nonlr-proj:      23283. kBytes
   wavefun   :      39990. kBytes
 
  
  
 General timing and accounting informations for this job:
 ========================================================
  
                  Total CPU time used (sec):    44253.594
                            User time (sec):    44145.339
                          System time (sec):      108.255
                         Elapsed time (sec):    44453.415
  
                   Maximum memory used (kb):      634488.
                   Average memory used (kb):           0.
  
                          Minor page faults:     18543119
                          Major page faults:            1
                 Voluntary context switches:       330118
