 vasp.5.3.5 31Mar14 (build Jan 22 2015 17:36:29) complex                        
  
 executed on             LinuxIFC date 2016.10.04  16:02:27
 running on   32 total cores
 distrk:  each k-point on   32 cores,    1 groups
 distr:  one band on NCORES_PER_BAND=   1 cores,   32 groups


--------------------------------------------------------------------------------------------------------


 INCAR:
 POTCAR:    PAW_PBE Cd 06Sep2000                  
 POTCAR:    PAW_PBE In_d 06Sep2000                
 POTCAR:    PAW_PBE S 06Sep2000                   

 ----------------------------------------------------------------------------- 
|                                                                             |
|           W    W    AA    RRRRR   N    N  II  N    N   GGGG   !!!           |
|           W    W   A  A   R    R  NN   N  II  NN   N  G    G  !!!           |
|           W    W  A    A  R    R  N N  N  II  N N  N  G       !!!           |
|           W WW W  AAAAAA  RRRRR   N  N N  II  N  N N  G  GGG   !            |
|           WW  WW  A    A  R   R   N   NN  II  N   NN  G    G                |
|           W    W  A    A  R    R  N    N  II  N    N   GGGG   !!!           |
|                                                                             |
|      For optimal performance we recommend to set                            |
|        NCORE= 4 - approx SQRT( number of cores)                             |
|      NCORE specifies how many cores store one orbital (NPAR=cpu/NCORE).     |
|      This setting can  greatly improve the performance of VASP for DFT.     |
|      The default, NPAR=number of cores might be grossly inefficient         |
|      on modern multi-core architectures or massively parallel machines.     |
|      Do your own testing !!!!                                               |
|      Unfortunately you need to use the default for GW and RPA calculations. |
|      (for HF NCORE is supported but not extensively tested yet)             |
|                                                                             |
 ----------------------------------------------------------------------------- 

 POTCAR:    PAW_PBE Cd 06Sep2000                  
   VRHFIN =Cd : s2 d10                                                          
   LEXCH  = PE                                                                  
   EATOM  =  1293.1815 eV,   95.0462 Ry                                         
                                                                                
   TITEL  = PAW_PBE Cd 06Sep2000                                                
   LULTRA =        F    use ultrasoft PP ?                                      
   IUNSCR =        1    unscreen: 0-lin 1-nonlin 2-no                           
   RPACOR =    2.000    partial core radius                                     
   POMASS =  112.411; ZVAL   =   12.000    mass and valenz                      
   RCORE  =    2.300    outmost cutoff radius                                   
   RWIGS  =    2.980; RWIGS  =    1.577    wigner-seitz radius (au A)           
   ENMAX  =  274.336; ENMIN  =  205.752 eV                                      
   RCLOC  =    2.054    cutoff for local pot                                    
   LCOR   =        T    correct aug charges                                     
   LPAW   =        T    paw PP                                                  
   EAUG   =  456.106                                                            
   DEXC   =    0.000                                                            
   RMAX   =    2.358    core radius for proj-oper                               
   RAUG   =    1.300    factor for augmentation sphere                          
   RDEP   =    2.450    radius for radial grids                                 
   RDEPT  =    1.955    core radius for aug-charge                              
                                                                                
   Atomic configuration                                                         
   12 entries                                                                   
     n  l   j            E        occ.                                          
     1  0  0.50    -26519.7817   2.0000                                         
     2  0  0.50     -3936.9612   2.0000                                         
     2  1  1.50     -3532.2230   6.0000                                         
     3  0  0.50      -733.7908   2.0000                                         
     3  1  1.50      -601.0792   6.0000                                         
     3  2  2.50      -393.5307  10.0000                                         
     4  0  0.50      -105.8977   2.0000                                         
     4  1  1.50       -66.9488   6.0000                                         
     4  2  2.50       -11.7331  10.0000                                         
     5  0  0.50        -5.6592   2.0000                                         
     5  1  0.50        -1.3606   0.0000                                         
     4  3  2.50        -1.3606   0.0000                                         
   Description                                                                  
     l       E           TYP  RCUT    TYP  RCUT                                 
     2    -11.7331479     23  2.300                                             
     2    -13.0937305     23  2.300                                             
     0     -5.6591502     23  2.300                                             
     0     -1.5561433     23  2.300                                             
     1     -2.7211652     23  2.300                                             
     1      8.3548275     23  2.300                                             
  local pseudopotential read in
  partial core-charges read in
  partial kinetic energy density read in
  atomic valenz-charges read in
  non local Contribution for L=           2  read in
    real space projection operators read in
  non local Contribution for L=           2  read in
    real space projection operators read in
  non local Contribution for L=           0  read in
    real space projection operators read in
  non local Contribution for L=           0  read in
    real space projection operators read in
  non local Contribution for L=           1  read in
    real space projection operators read in
  non local Contribution for L=           1  read in
    real space projection operators read in
    PAW grid and wavefunctions read in
 
   number of l-projection  operators is LMAX  =           6
   number of lm-projection operators is LMMAX =          18
 
 POTCAR:    PAW_PBE In_d 06Sep2000                
   VRHFIN =In: s2p1                                                             
   LEXCH  = PE                                                                  
   EATOM  =  1576.8302 eV,  115.8937 Ry                                         
                                                                                
   TITEL  = PAW_PBE In_d 06Sep2000                                              
   LULTRA =        F    use ultrasoft PP ?                                      
   IUNSCR =        1    unscreen: 0-lin 1-nonlin 2-no                           
   RPACOR =    2.200    partial core radius                                     
   POMASS =  114.820; ZVAL   =   13.000    mass and valenz                      
   RCORE  =    2.500    outmost cutoff radius                                   
   RWIGS  =    3.170; RWIGS  =    1.677    wigner-seitz radius (au A)           
   ENMAX  =  239.211; ENMIN  =  179.409 eV                                      
   ICORE  =        3    local potential                                         
   LCOR   =        T    correct aug charges                                     
   LPAW   =        T    paw PP                                                  
   EAUG   =  449.704                                                            
   DEXC   =    0.000                                                            
   RMAX   =    2.552    core radius for proj-oper                               
   RAUG   =    1.300    factor for augmentation sphere                          
   RDEP   =    2.630    radius for radial grids                                 
   RDEPT  =    2.033    core radius for aug-charge                              
                                                                                
   Atomic configuration                                                         
   12 entries                                                                   
     n  l   j            E        occ.                                          
     1  0  0.50    -27747.9169   2.0000                                         
     2  0  0.50     -4154.4438   2.0000                                         
     2  1  1.50     -3728.4305   6.0000                                         
     3  0  0.50      -788.3680   2.0000                                         
     3  1  1.50      -648.9215   6.0000                                         
     3  2  2.50      -432.5893  10.0000                                         
     4  0  0.50      -119.6363   2.0000                                         
     4  1  1.50       -78.1086   6.0000                                         
     4  2  2.50       -18.6227  10.0000                                         
     5  0  0.50        -8.2107   2.0000                                         
     5  1  0.50        -2.5185   1.0000                                         
     4  3  2.50        -2.7212   0.0000                                         
   Description                                                                  
     l       E           TYP  RCUT    TYP  RCUT                                 
     2    -18.6226981     23  2.500                                             
     2     -1.3605826     23  2.500                                             
     0     -8.2107305     23  2.500                                             
     0     -6.1485975     23  2.500                                             
     1     -2.5184867     23  2.500                                             
     1      3.2427302     23  2.500                                             
     3     -1.3605826      7  2.500                                             
  local pseudopotential read in
  partial core-charges read in
  partial kinetic energy density read in
  atomic valenz-charges read in
  non local Contribution for L=           2  read in
    real space projection operators read in
  non local Contribution for L=           2  read in
    real space projection operators read in
  non local Contribution for L=           0  read in
    real space projection operators read in
  non local Contribution for L=           0  read in
    real space projection operators read in
  non local Contribution for L=           1  read in
    real space projection operators read in
  non local Contribution for L=           1  read in
    real space projection operators read in
    PAW grid and wavefunctions read in
 
   number of l-projection  operators is LMAX  =           6
   number of lm-projection operators is LMMAX =          18
 
 POTCAR:    PAW_PBE S 06Sep2000                   
   VRHFIN =S : s2p4                                                             
   LEXCH  = PE                                                                  
   EATOM  =   276.8230 eV,   20.3459 Ry                                         
                                                                                
   TITEL  = PAW_PBE S 06Sep2000                                                 
   LULTRA =        F    use ultrasoft PP ?                                      
   IUNSCR =        1    unscreen: 0-lin 1-nonlin 2-no                           
   RPACOR =    1.500    partial core radius                                     
   POMASS =   32.066; ZVAL   =    6.000    mass and valenz                      
   RCORE  =    1.900    outmost cutoff radius                                   
   RWIGS  =    2.200; RWIGS  =    1.164    wigner-seitz radius (au A)           
   ENMAX  =  258.689; ENMIN  =  194.016 eV                                      
   ICORE  =        2    local potential                                         
   LCOR   =        T    correct aug charges                                     
   LPAW   =        T    paw PP                                                  
   EAUG   =  335.092                                                            
   DEXC   =    0.000                                                            
   RMAX   =    1.942    core radius for proj-oper                               
   RAUG   =    1.300    factor for augmentation sphere                          
   RDEP   =    1.954    radius for radial grids                                 
   RDEPT  =    1.744    core radius for aug-charge                              
                                                                                
   Atomic configuration                                                         
    6 entries                                                                   
     n  l   j            E        occ.                                          
     1  0  0.50     -2405.8406   2.0000                                         
     2  0  0.50      -211.7007   2.0000                                         
     2  1  1.50      -156.4958   6.0000                                         
     3  0  0.50       -17.2562   2.0000                                         
     3  1  0.50        -7.0085   4.0000                                         
     3  2  1.50        -6.8029   0.0000                                         
   Description                                                                  
     l       E           TYP  RCUT    TYP  RCUT                                 
     0    -17.2561641     23  1.900                                             
     0    -15.8743224     23  1.900                                             
     1     -7.0085400     23  1.900                                             
     1     -2.7779785     23  1.900                                             
     2     -6.8029130     23  1.900                                             
  local pseudopotential read in
  partial core-charges read in
  partial kinetic energy density read in
  atomic valenz-charges read in
  non local Contribution for L=           0  read in
    real space projection operators read in
  non local Contribution for L=           0  read in
    real space projection operators read in
  non local Contribution for L=           1  read in
    real space projection operators read in
  non local Contribution for L=           1  read in
    real space projection operators read in
    PAW grid and wavefunctions read in
 
   number of l-projection  operators is LMAX  =           4
   number of lm-projection operators is LMMAX =           8
 

 ----------------------------------------------------------------------------- 
|                                                                             |
|  ADVICE TO THIS USER RUNNING 'VASP/VAMP'   (HEAR YOUR MASTER'S VOICE ...):  |
|                                                                             |
|      You have a (more or less) 'large supercell' and for larger cells       |
|      it might be more efficient to use real space projection opertators     |
|      So try LREAL= Auto  in the INCAR   file.                               |
|      Mind: At the moment your POTCAR file does not contain real space       |
|       projectors, and has to be modified,  BUT if you                       |
|      want to do an extremely  accurate calculation you might also keep the  |
|      reciprocal projection scheme          (i.e. LREAL=.FALSE.)             |
|                                                                             |
 ----------------------------------------------------------------------------- 

  PAW_PBE Cd 06Sep2000                  :
 energy of atom  1       EATOM=-1293.1815
 kinetic energy error for atom=    0.0041 (will be added to EATOM!!)
  PAW_PBE In_d 06Sep2000                :
 energy of atom  2       EATOM=-1576.8302
 kinetic energy error for atom=    0.0011 (will be added to EATOM!!)
  PAW_PBE S 06Sep2000                   :
 energy of atom  3       EATOM= -276.8230
 kinetic energy error for atom=    0.0009 (will be added to EATOM!!)
 
 
 POSCAR: Cd In2 S4                               
  positions in direct lattice
  velocities in cartesian coordinates
 exchange correlation table for  LEXCH =        8
   RHO(1)=    0.500       N(1)  =     2000
   RHO(2)=  100.500       N(2)  =     4000
 


--------------------------------------------------------------------------------------------------------


 ion  position               nearest neighbor table
   1  1.000  1.000  1.000-  30 2.56  52 2.57  46 2.57  42 2.57
   2  0.001  0.501  0.501-  53 2.55  29 2.58  34 2.58  43 2.59
   3  0.501  0.501  0.001-  45 2.55  35 2.58  31 2.58  56 2.59
   4  0.501  0.001  0.501-  44 2.55  33 2.58  32 2.58  51 2.59
   5  0.748  0.249  0.748-  48 2.54  38 2.58  26 2.58  49 2.59
   6  0.250  0.250  0.250-  25 2.56  41 2.57  54 2.57  47 2.57
   7  0.249  0.748  0.748-  50 2.54  36 2.58  27 2.58  39 2.59
   8  0.748  0.748  0.249-  40 2.54  37 2.58  28 2.58  55 2.59
   9  0.625  0.625  0.625-  48 2.70  40 2.70  50 2.70  53 2.70  44 2.70  45 2.71  19 3.87  18 3.87
                            23 3.87  22 3.87  17 3.87  20 3.87
  10  0.375  0.875  0.125-  35 2.64  37 2.65  54 2.65  39 2.65  46 2.65  51 2.66  14 3.89  16 3.90
                            21 3.90  23 3.90  20 3.91  15 3.91
  11  0.875  0.125  0.375-  33 2.64  38 2.65  47 2.65  55 2.65  52 2.65  43 2.66  15 3.89  24 3.90
                            16 3.90  19 3.90  22 3.91  13 3.91
  12  0.125  0.375  0.875-  34 2.64  36 2.65  41 2.65  49 2.65  42 2.65  56 2.66  13 3.89  21 3.90
                            24 3.90  18 3.90  17 3.91  14 3.91
  13  0.875  0.375  0.125-  31 2.64  28 2.65  41 2.65  49 2.65  52 2.65  43 2.66  12 3.89  21 3.90
                            16 3.90  18 3.90  22 3.91  11 3.91
  14  0.375  0.125  0.875-  32 2.64  26 2.65  54 2.65  39 2.65  42 2.65  56 2.66  10 3.89  16 3.90
                            24 3.90  23 3.90  17 3.91  12 3.91
  15  0.125  0.875  0.375-  29 2.64  27 2.65  47 2.65  55 2.65  46 2.65  51 2.66  11 3.89  24 3.90
                            21 3.90  19 3.90  20 3.91  10 3.91
  16  0.625  0.125  0.125-  26 2.64  37 2.64  33 2.64  31 2.64  54 2.66  52 2.66  14 3.90  10 3.90
                            13 3.90  11 3.90  22 3.92  23 3.93
  17  0.377  0.377  0.626-  50 2.62  48 2.62  32 2.66  34 2.66  56 2.66  25 2.67   9 3.87  20 3.88
                            22 3.88  14 3.91  12 3.91  24 3.92
  18  0.873  0.625  0.873-  45 2.62  53 2.62  30 2.66  49 2.67  36 2.67  28 2.67   9 3.87  23 3.87
                            19 3.87  13 3.90  12 3.90  21 3.93
  19  0.873  0.873  0.625-  44 2.62  53 2.62  30 2.66  55 2.67  38 2.67  27 2.67   9 3.87  23 3.87
                            18 3.87  11 3.90  15 3.90  24 3.93
  20  0.377  0.626  0.377-  40 2.62  50 2.62  29 2.66  35 2.66  51 2.66  25 2.67   9 3.87  17 3.88
                            22 3.88  15 3.91  10 3.91  21 3.92
  21  0.125  0.625  0.125-  28 2.64  36 2.64  35 2.64  29 2.64  41 2.66  46 2.66  12 3.90  13 3.90
                            10 3.90  15 3.90  20 3.92  18 3.93
  22  0.626  0.377  0.377-  48 2.62  40 2.62  31 2.66  33 2.66  43 2.66  25 2.67   9 3.87  17 3.88
                            20 3.88  13 3.91  11 3.91  16 3.92
  23  0.625  0.873  0.873-  45 2.62  44 2.62  30 2.66  39 2.67  37 2.67  26 2.67   9 3.87  19 3.87
                            18 3.87  10 3.90  14 3.90  16 3.93
  24  0.125  0.125  0.625-  38 2.64  27 2.64  34 2.64  32 2.64  47 2.66  42 2.66  15 3.90  11 3.90
                            12 3.90  14 3.90  17 3.92  19 3.93
  25  0.384  0.384  0.384-   6 2.56  17 2.67  20 2.67  22 2.67
  26  0.615  0.115  0.886-   5 2.58  16 2.64  14 2.65  23 2.67
  27  0.115  0.886  0.615-   7 2.58  24 2.64  15 2.65  19 2.67
  28  0.886  0.615  0.115-   8 2.58  21 2.64  13 2.65  18 2.67
  29  0.136  0.636  0.364-   2 2.58  21 2.64  15 2.64  20 2.66
  30  0.866  0.866  0.866-   1 2.56  23 2.66  18 2.66  19 2.66
  31  0.636  0.364  0.136-   3 2.58  16 2.64  13 2.64  22 2.66
  32  0.364  0.136  0.636-   4 2.58  24 2.64  14 2.64  17 2.66
  33  0.636  0.136  0.364-   4 2.58  16 2.64  11 2.64  22 2.66
  34  0.136  0.364  0.636-   2 2.58  24 2.64  12 2.64  17 2.66
  35  0.364  0.636  0.136-   3 2.58  21 2.64  10 2.64  20 2.66
  36  0.115  0.615  0.886-   7 2.58  21 2.64  12 2.65  18 2.67
  37  0.615  0.886  0.115-   8 2.58  16 2.64  10 2.65  23 2.67
  38  0.886  0.115  0.615-   5 2.58  24 2.64  11 2.65  19 2.67
  39  0.383  0.884  0.884-   7 2.59  14 2.65  10 2.65  23 2.67
  40  0.614  0.614  0.380-   8 2.54  20 2.62  22 2.62   9 2.70
  41  0.115  0.385  0.115-   6 2.57  12 2.65  13 2.65  21 2.66
  42  0.135  0.135  0.866-   1 2.57  14 2.65  12 2.65  24 2.66
  43  0.867  0.365  0.365-   2 2.59  13 2.66  11 2.66  22 2.66
  44  0.636  0.870  0.636-   4 2.55  23 2.62  19 2.62   9 2.70
  45  0.636  0.636  0.870-   3 2.55  23 2.62  18 2.62   9 2.71
  46  0.135  0.866  0.135-   1 2.57  15 2.65  10 2.65  21 2.66
  47  0.115  0.115  0.385-   6 2.57  11 2.65  15 2.65  24 2.66
  48  0.614  0.380  0.614-   5 2.54  22 2.62  17 2.62   9 2.70
  49  0.884  0.383  0.884-   5 2.59  13 2.65  12 2.65  18 2.67
  50  0.380  0.614  0.614-   7 2.54  17 2.62  20 2.62   9 2.70
  51  0.365  0.867  0.365-   4 2.59  10 2.66  15 2.66  20 2.66
  52  0.866  0.135  0.135-   1 2.57  11 2.65  13 2.65  16 2.66
  53  0.870  0.636  0.636-   2 2.55  19 2.62  18 2.62   9 2.70
  54  0.385  0.115  0.115-   6 2.57  10 2.65  14 2.65  16 2.66
  55  0.884  0.884  0.383-   8 2.59  15 2.65  11 2.65  19 2.67
  56  0.365  0.365  0.867-   3 2.59  14 2.66  12 2.66  17 2.66
 
  LATTYP: Found a simple cubic cell.
 ALAT       =    11.0223536917
  
  Lattice vectors:
  
 A1 = (  11.0223536917,   0.0000000000,   0.0000000000)
 A2 = (   0.0000000000,  11.0223536917,   0.0000000000)
 A3 = (   0.0000000000,   0.0000000000,  11.0223536917)


Analysis of symmetry for initial positions (statically):
=====================================================================
 Subroutine PRICEL returns:
 Original cell was already a primitive cell.
 

 Routine SETGRP: Setting up the symmetry group for a 
 simple cubic supercell.


 Subroutine GETGRP returns: Found  1 space group operations
 (whereof  1 operations were pure point group operations)
 out of a pool of 48 trial point group operations.


The static configuration has the point symmetry C_1 .


Analysis of symmetry for dynamics (positions and initial velocities):
=====================================================================
 Subroutine PRICEL returns:
 Original cell was already a primitive cell.
 

 Routine SETGRP: Setting up the symmetry group for a 
 simple cubic supercell.


 Subroutine GETGRP returns: Found  1 space group operations
 (whereof  1 operations were pure point group operations)
 out of a pool of 48 trial point group operations.


The dynamic configuration has the point symmetry C_1 .
 
 
 KPOINTS: Automatic mesh                          

Automatic generation of k-mesh.
Space group operators:
 irot       det(A)        alpha          n_x          n_y          n_z        tau_x        tau_y        tau_z
    1     1.000000     0.000001     1.000000     0.000000     0.000000     0.000000     0.000000     0.000000
 
 Subroutine IBZKPT returns following result:
 ===========================================
 
 Found     14 irreducible k-points:
 
 Following reciprocal coordinates:
            Coordinates               Weight
  0.000000  0.000000  0.000000      1.000000
  0.333333  0.000000  0.000000      2.000000
  0.000000  0.333333  0.000000      2.000000
  0.333333  0.333333  0.000000      2.000000
 -0.333333  0.333333  0.000000      2.000000
  0.000000  0.000000  0.333333      2.000000
  0.333333  0.000000  0.333333      2.000000
 -0.333333  0.000000  0.333333      2.000000
  0.000000  0.333333  0.333333      2.000000
  0.333333  0.333333  0.333333      2.000000
 -0.333333  0.333333  0.333333      2.000000
  0.000000 -0.333333  0.333333      2.000000
  0.333333 -0.333333  0.333333      2.000000
 -0.333333 -0.333333  0.333333      2.000000
 
 Following cartesian coordinates:
            Coordinates               Weight
  0.000000  0.000000  0.000000      1.000000
  0.030242  0.000000  0.000000      2.000000
  0.000000  0.030242  0.000000      2.000000
  0.030242  0.030242  0.000000      2.000000
 -0.030242  0.030242  0.000000      2.000000
  0.000000  0.000000  0.030242      2.000000
  0.030242  0.000000  0.030242      2.000000
 -0.030242  0.000000  0.030242      2.000000
  0.000000  0.030242  0.030242      2.000000
  0.030242  0.030242  0.030242      2.000000
 -0.030242  0.030242  0.030242      2.000000
  0.000000 -0.030242  0.030242      2.000000
  0.030242 -0.030242  0.030242      2.000000
 -0.030242 -0.030242  0.030242      2.000000
 
 TETIRR: Found     78 inequivalent tetrahedra from      162


--------------------------------------------------------------------------------------------------------




 Dimension of arrays:
   k-points           NKPTS =     14   k-points in BZ     NKDIM =     14   number of bands    NBANDS=    320
   number of dos      NEDOS =   1601   number of ions     NIONS =     56
   non local maximal  LDIM  =      6   non local SUM 2l+1 LMDIM =     18
   total plane-waves  NPLWV = 729000
   max r-space proj   IRMAX =      1   max aug-charges    IRDMAX=  23711
   dimension x,y,z NGX =    90 NGY =   90 NGZ =   90
   dimension x,y,z NGXF=   180 NGYF=  180 NGZF=  180
   support grid    NGXF=   180 NGYF=  180 NGZF=  180
   ions per type =               9  15  32
 NGX,Y,Z   is equivalent  to a cutoff of  13.57, 13.57, 13.57 a.u.
 NGXF,Y,Z  is equivalent  to a cutoff of  27.15, 27.15, 27.15 a.u.


 I would recommend the setting:
   dimension x,y,z NGX =    88 NGY =   88 NGZ =   88
 SYSTEM =  CdIn2S4                                 
 POSCAR =  Cd In2 S4                               

 Startparameter for this run:
   NWRITE =      2    write-flag & timer
   PREC   = accura    normal or accurate (medium, high low for compatibility)
   ISTART =      0    job   : 0-new  1-cont  2-samecut
   ICHARG =      2    charge: 1-file 2-atom 10-const
   ISPIN  =      1    spin polarized calculation?
   LNONCOLLINEAR =      F non collinear calculations
   LSORBIT =      F    spin-orbit coupling
   INIWAV =      1    electr: 0-lowe 1-rand  2-diag
   LASPH  =      F    aspherical Exc in radial PAW
   METAGGA=      F    non-selfconsistent MetaGGA calc.

 Electronic Relaxation 1
   ENCUT  =  600.0 eV  44.10 Ry    6.64 a.u.  22.01 22.01 22.01*2*pi/ulx,y,z
   ENINI  =  600.0     initial cutoff
   ENAUG  =  456.1 eV  augmentation charge cutoff
   NELM   =     60;   NELMIN=  2; NELMDL= -5     # of ELM steps 
   EDIFF  = 0.1E-03   stopping-criterion for ELM
   LREAL  =      F    real-space projection
   NLSPLINE    = F    spline interpolate recip. space projectors
   LCOMPAT=      F    compatible to vasp.4.4
   GGA_COMPAT  = T    GGA compatible to vasp.4.4-vasp.4.6
   LMAXPAW     = -100 max onsite density
   LMAXMIX     =    2 max onsite mixed and CHGCAR
   VOSKOWN=      0    Vosko Wilk Nusair interpolation
   ROPT   =    0.00000   0.00000   0.00000
 Ionic relaxation
   EDIFFG = 0.1E-02   stopping-criterion for IOM
   NSW    =      0    number of steps for IOM
   NBLOCK =      1;   KBLOCK =      1    inner block; outer block 
   IBRION =     -1    ionic relax: 0-MD 1-quasi-New 2-CG
   NFREE  =      1    steps in history (QN), initial steepest desc. (CG)
   ISIF   =      0    stress and relaxation
   IWAVPR =     10    prediction:  0-non 1-charg 2-wave 3-comb
   ISYM   =      2    0-nonsym 1-usesym 2-fastsym
   LCORR  =      T    Harris-Foulkes like correction to forces

   POTIM  = 0.5000    time-step for ionic-motion
   TEIN   =    0.0    initial temperature
   TEBEG  =    0.0;   TEEND  =   0.0 temperature during run
   SMASS  =  -3.00    Nose mass-parameter (am)
   estimated Nose-frequenzy (Omega)   =  0.10E-29 period in steps =****** mass=  -0.278E-26a.u.
   SCALEE = 1.0000    scale energy and forces
   NPACO  =    256;   APACO  = 16.0  distance and # of slots for P.C.
   PSTRESS=    0.0 pullay stress

  Mass of Ions in am
   POMASS = 112.41114.82 32.07
  Ionic Valenz
   ZVAL   =  12.00 13.00  6.00
  Atomic Wigner-Seitz radii
   RWIGS  =  -1.00 -1.00 -1.00
  virtual crystal weights 
   VCA    =   1.00  1.00  1.00
   NELECT =     496.0000    total number of electrons
   NUPDOWN=      -1.0000    fix difference up-down

 DOS related values:
   EMIN   =  -5.00;   EMAX   = 10.00  energy-range for DOS
   EFERMI =   0.00
   ISMEAR =    -4;   SIGMA  =   0.20  broadening in eV -4-tet -1-fermi 0-gaus

 Electronic relaxation 2 (details)
   IALGO  =     38    algorithm
   LDIAG  =      T    sub-space diagonalisation (order eigenvalues)
   LSUBROT=      F    optimize rotation matrix (better conditioning)
   TURBO    =      0    0=normal 1=particle mesh
   IRESTART =      0    0=no restart 2=restart with 2 vectors
   NREBOOT  =      0    no. of reboots
   NMIN     =      0    reboot dimension
   EREF     =   0.00    reference energy to select bands
   IMIX   =      4    mixing-type and parameters
     AMIX     =   0.40;   BMIX     =  1.00
     AMIX_MAG =   1.60;   BMIX_MAG =  1.00
     AMIN     =   0.10
     WC   =   100.;   INIMIX=   1;  MIXPRE=   1;  MAXMIX= -45

 Intra band minimization:
   WEIMIN = 0.0000     energy-eigenvalue tresh-hold
   EBREAK =  0.78E-07  absolut break condition
   DEPER  =   0.30     relativ break condition  

   TIME   =   0.40     timestep for ELM

  volume/ion in A,a.u.               =      23.91       161.37
  Fermi-wavevector in a.u.,A,eV,Ry     =   1.175694  2.221740 18.806747  1.382257
  Thomas-Fermi vector in A             =   2.312071
 
 Write flags
   LWAVE  =      T    write WAVECAR
   LCHARG =      T    write CHGCAR
   LVTOT  =      F    write LOCPOT, total local potential
   LVHAR  =      F    write LOCPOT, Hartree potential only
   LELF   =      F    write electronic localiz. function (ELF)
   LORBIT =     11    0 simple, 1 ext, 2 COOP (PROOUT)


 Dipole corrections
   LMONO  =      F    monopole corrections only (constant potential shift)
   LDIPOL =      F    correct potential (dipole corrections)
   IDIPOL =      0    1-x, 2-y, 3-z, 4-all directions 
   EPSILON=  1.0000000 bulk dielectric constant

 Exchange correlation treatment:
   GGA     =    --    GGA type
   LEXCH   =     8    internal setting for exchange type
   VOSKOWN=      0    Vosko Wilk Nusair interpolation
   LHFCALC =     F    Hartree Fock is set to
   LHFONE  =     F    Hartree Fock one center treatment
   AEXX    =    0.0000 exact exchange contribution

 Linear response parameters
   LEPSILON=     F    determine dielectric tensor
   LRPA    =     F    only Hartree local field effects (RPA)
   LNABLA  =     F    use nabla operator in PAW spheres
   LVEL    =     F    velocity operator in full k-point grid
   LINTERFAST=   F  fast interpolation
   KINTER  =     0    interpolate to denser k-point grid
   CSHIFT  =0.1000    complex shift for real part using Kramers Kronig
   OMEGAMAX=  -1.0    maximum frequency
   DEG_THRESHOLD= 0.2000000E-02 threshold for treating states as degnerate
   RTIME   =    0.100 relaxation time in fs

 Orbital magnetization related:
   ORBITALMAG=     F  switch on orbital magnetization
   LCHIMAG   =     F  perturbation theory with respect to B field
   DQ        =  0.001000  dq finite difference perturbation B field



--------------------------------------------------------------------------------------------------------


 Static calculation
 charge density and potential will be updated during run
 non-spin polarized calculation
 Variant of blocked Davidson
 Davidson routine will perform the subspace rotation
 perform sub-space diagonalisation
    after iterative eigenvector-optimisation
 modified Broyden-mixing scheme, WC =      100.0
 initial mixing is a Kerker type mixing with AMIX =  0.4000 and BMIX =      1.0000
 Hartree-type preconditioning will be used
 using additional bands           72
 reciprocal scheme for non local part
 use partial core corrections
 calculate Harris-corrections to forces 
   (improved forces if not selfconsistent)
 use gradient corrections 
 use of overlap-Matrix (Vanderbilt PP)
 Fermi weights with tetrahedron method witout Bloechl corrections


--------------------------------------------------------------------------------------------------------


  energy-cutoff  :      600.00
  volume of cell :     1339.13
      direct lattice vectors                 reciprocal lattice vectors
    11.022353692  0.000000000  0.000000000     0.090724724  0.000000000  0.000000000
     0.000000000 11.022353692  0.000000000     0.000000000  0.090724724  0.000000000
     0.000000000  0.000000000 11.022353692     0.000000000  0.000000000  0.090724724

  length of vectors
    11.022353692 11.022353692 11.022353692     0.090724724  0.090724724  0.090724724


 
 k-points in units of 2pi/SCALE and weight: Automatic mesh                          
   0.00000000  0.00000000  0.00000000       0.037
   0.03024157  0.00000000  0.00000000       0.074
   0.00000000  0.03024157  0.00000000       0.074
   0.03024157  0.03024157  0.00000000       0.074
  -0.03024157  0.03024157  0.00000000       0.074
   0.00000000  0.00000000  0.03024157       0.074
   0.03024157  0.00000000  0.03024157       0.074
  -0.03024157  0.00000000  0.03024157       0.074
   0.00000000  0.03024157  0.03024157       0.074
   0.03024157  0.03024157  0.03024157       0.074
  -0.03024157  0.03024157  0.03024157       0.074
   0.00000000 -0.03024157  0.03024157       0.074
   0.03024157 -0.03024157  0.03024157       0.074
  -0.03024157 -0.03024157  0.03024157       0.074
 
 k-points in reciprocal lattice and weights: Automatic mesh                          
   0.00000000  0.00000000  0.00000000       0.037
   0.33333333  0.00000000  0.00000000       0.074
   0.00000000  0.33333333  0.00000000       0.074
   0.33333333  0.33333333  0.00000000       0.074
  -0.33333333  0.33333333  0.00000000       0.074
   0.00000000  0.00000000  0.33333333       0.074
   0.33333333  0.00000000  0.33333333       0.074
  -0.33333333  0.00000000  0.33333333       0.074
   0.00000000  0.33333333  0.33333333       0.074
   0.33333333  0.33333333  0.33333333       0.074
  -0.33333333  0.33333333  0.33333333       0.074
   0.00000000 -0.33333333  0.33333333       0.074
   0.33333333 -0.33333333  0.33333333       0.074
  -0.33333333 -0.33333333  0.33333333       0.074
 
 position of ions in fractional coordinates (direct lattice) 
   0.99991133  0.99991224  0.99991600
   0.00130096  0.50144965  0.50144951
   0.50144217  0.50145225  0.00130542
   0.50145446  0.00130508  0.50144598
   0.74767656  0.24879563  0.74767290
   0.25010852  0.25011109  0.25011539
   0.24880437  0.74767680  0.74767923
   0.74767740  0.74767707  0.24879322
   0.62514294  0.62509089  0.62508708
   0.37537754  0.87491656  0.12471555
   0.87491711  0.12471114  0.37537767
   0.12471183  0.37537757  0.87491674
   0.87491788  0.37537607  0.12471348
   0.37537677  0.12471329  0.87491755
   0.12471037  0.87491744  0.37537856
   0.62529352  0.12496685  0.12496683
   0.37660898  0.37660299  0.62574351
   0.87308612  0.62463840  0.87309102
   0.87308678  0.87308980  0.62464274
   0.37659795  0.62574433  0.37660456
   0.12496871  0.62529491  0.12496599
   0.62573896  0.37660277  0.37659142
   0.62463839  0.87308436  0.87308752
   0.12496688  0.12496689  0.62529650
   0.38402787  0.38404106  0.38404708
   0.61494611  0.11461989  0.88572998
   0.11461640  0.88572761  0.61494741
   0.88573527  0.61494024  0.11462032
   0.13557351  0.63558909  0.36431425
   0.86581911  0.86582297  0.86583993
   0.63558918  0.36431138  0.13558376
   0.36428901  0.13558295  0.63558735
   0.63559339  0.13557976  0.36428820
   0.13557782  0.36428812  0.63559061
   0.36428640  0.63559247  0.13556961
   0.11461425  0.61495040  0.88572505
   0.61494796  0.88572681  0.11461698
   0.88572855  0.11461292  0.61494762
   0.38335292  0.88422673  0.88421753
   0.61381037  0.61383659  0.38032985
   0.11518129  0.38458193  0.11517827
   0.13493488  0.13493338  0.86618189
   0.86684978  0.36539060  0.36539067
   0.63584503  0.87002653  0.63584681
   0.63584237  0.63584434  0.87003613
   0.13493171  0.86618830  0.13493771
   0.11517112  0.11518147  0.38458594
   0.61384740  0.38033745  0.61379630
   0.88421900  0.38335803  0.88422212
   0.38035802  0.61382118  0.61382716
   0.36539325  0.86685762  0.36539147
   0.86618724  0.13492599  0.13492935
   0.87002668  0.63584570  0.63584653
   0.38457774  0.11517679  0.11518137
   0.88421864  0.88421702  0.38336837
   0.36539124  0.36539061  0.86685000
 
 position of ions in cartesian coordinates  (Angst):
  11.02137635 11.02138642 11.02142778
   0.01433969  5.52715546  5.52715383
   5.52707299  5.52718408  0.01438885
   5.52720839  0.01438501  5.52711496
   8.24115547  2.74231343  8.24111520
   2.75678454  2.75681287  2.75686030
   2.74240982  8.24115818  8.24118496
   8.24116480  8.24116113  2.74228686
   6.89054661  6.88997291  6.88993084
   4.13754396  9.64363977  1.37465886
   9.64364586  1.37461025  4.13754542
   1.37461787  4.13754433  9.64364171
   9.64365427  4.13752783  1.37463612
   4.13753550  1.37463397  9.64365072
   1.37460179  9.64364952  4.13755527
   6.89220631  1.37742883  1.37742864
   4.15111739  4.15105140  6.89716627
   9.62346397  6.88498533  9.62351807
   9.62347127  9.62350453  6.88503317
   4.15099583  6.89717536  4.15106867
   1.37744935  6.89222161  1.37741929
   6.89711610  4.15104893  4.15092378
   6.88498531  9.62344467  9.62347945
   1.37742914  1.37742921  6.89223923
   4.23289102  4.23303645  4.23310280
   6.77815351  1.26338096  9.76282911
   1.26334249  9.76280298  6.77816789
   9.76288738  6.77808877  1.26338574
   1.49433914  7.00568780  4.01560049
   9.54336443  9.54340703  9.54359398
   7.00568877  4.01556883  1.49445213
   4.01532227  1.49444324  7.00566853
   7.00573520  1.49440803  4.01531338
   1.49438670  4.01531256  7.00570455
   4.01529353  7.00572496  1.49429619
   1.26331876  6.77820080  9.76277473
   6.77817389  9.76279413  1.26334886
   9.76281331  1.26330417  6.77817019
   4.22545148  9.74625976  9.74615831
   6.76563503  6.76592404  4.19213015
   1.26956891  4.23899809  1.26953567
   1.48729999  1.48728339  9.54736316
   9.55472485  4.02746448  4.02746524
   7.00850880  9.58974013  7.00852844
   7.00847951  7.00850120  9.58984594
   1.48726502  9.54743380  1.48733113
   1.26945680  1.26957086  4.23904226
   6.76604320  4.19221389  6.76547988
   9.74617453  4.22550778  9.74620900
   4.19244068  6.76575413  6.76582007
   4.02749369  9.55481129  4.02747398
   9.54742213  1.48720202  1.48723897
   9.58974183  7.00851622  7.00852539
   4.23895186  1.26951929  1.26956979
   9.74617062  9.74615269  4.22562181
   4.02747146  4.02746458  9.55472735
 


--------------------------------------------------------------------------------------------------------


 k-point  1 :   0.0000 0.0000 0.0000  plane waves:   44473
 k-point  2 :   0.3333 0.0000 0.0000  plane waves:   44660
 k-point  3 :   0.0000 0.3333 0.0000  plane waves:   44660
 k-point  4 :   0.3333 0.3333 0.0000  plane waves:   44717
 k-point  5 :  -0.3333 0.3333 0.0000  plane waves:   44717
 k-point  6 :   0.0000 0.0000 0.3333  plane waves:   44660
 k-point  7 :   0.3333 0.0000 0.3333  plane waves:   44717
 k-point  8 :  -0.3333 0.0000 0.3333  plane waves:   44717
 k-point  9 :   0.0000 0.3333 0.3333  plane waves:   44717
 k-point 10 :   0.3333 0.3333 0.3333  plane waves:   44681
 k-point 11 :  -0.3333 0.3333 0.3333  plane waves:   44681
 k-point 12 :   0.0000-0.3333 0.3333  plane waves:   44717
 k-point 13 :   0.3333-0.3333 0.3333  plane waves:   44681
 k-point 14 :  -0.3333-0.3333 0.3333  plane waves:   44681

 maximum and minimum number of plane-waves per node :     44717    44473

 maximum number of plane-waves:     44717
 maximum index in each direction: 
   IXMAX=   22   IYMAX=   22   IZMAX=   22
   IXMIN=  -22   IYMIN=  -22   IZMIN=  -22

 NGX is ok and might be reduce to  90
 NGY is ok and might be reduce to  90
 NGZ is ok and might be reduce to  90

 serial   3D FFT for wavefunctions
 parallel 3D FFT for charge:
    minimum data exchange during FFTs selected (reduces bandwidth)


 total amount of memory used by VASP on root node   494609. kBytes
========================================================================

   base      :      30000. kBytes
   nonl-proj :     310646. kBytes
   fftplans  :       9474. kBytes
   grid      :      41834. kBytes
   one-center:        870. kBytes
   wavefun   :     101785. kBytes
 
     INWAV:  cpu time    0.00: real time    0.00
 Broyden mixing: mesh for mixing (old mesh)
   NGX = 45   NGY = 45   NGZ = 45
  (NGX  =180   NGY  =180   NGZ  =180)
  gives a total of  91125 points

 initial charge density was supplied:
 charge density of overlapping atoms calculated
 number of electron     495.0000000 magnetization 
 keeping initial charge density in first step


--------------------------------------------------------------------------------------------------------


 Maximum index for augmentation-charges          961 (set IRDMAX)


--------------------------------------------------------------------------------------------------------


 First call to EWALD:  gamma=   0.161
 Maximum number of real-space cells 3x 3x 3
 Maximum number of reciprocal cells 3x 3x 3

 FEWALD executed in parallel
    FEWALD:  cpu time    0.02: real time    0.02


----------------------------------------- Iteration    1(   1)  ---------------------------------------


    POTLOK:  cpu time    0.42: real time    0.42
    SETDIJ:  cpu time    0.04: real time    0.03
     EDDAV:  cpu time  227.90: real time  228.33
 BZINTS: Fermi energy: 24.186423;496.000000 electrons
         Band energy:3897.941087;  BLOECHL correction:  0.000000
       DOS:  cpu time    2.21: real time    2.21
    --------------------------------------------
      LOOP:  cpu time  230.56: real time  231.00

 eigenvalue-minimisations  :  8960
 total energy-change (2. order) : 0.5830853E+04  (-0.2338338E+05)
 number of electron     495.0000000 magnetization 
 augmentation part      495.0000000 magnetization 

 Free energy of the ion-electron system (eV)
  ---------------------------------------------------
  alpha Z        PSCENC =      1306.21815755
  Ewald energy   TEWEN  =    -31784.06072787
  -Hartree energ DENC   =    -13350.88971924
  -exchange      EXHF   =         0.00000000
  -V(xc)+E(xc)   XCENC  =      1066.57537744
  PAW double counting   =     38443.77006490   -37898.04291699
  entropy T*S    EENTRO =         0.00000000
  eigenvalues    EBANDS =      3897.94108726
  atomic energy  EATOM  =     44149.34201756
  ---------------------------------------------------
  free energy    TOTEN  =      5830.85334061 eV

  energy without entropy =     5830.85334061  energy(sigma->0) =     5830.85334061


--------------------------------------------------------------------------------------------------------




----------------------------------------- Iteration    1(   2)  ---------------------------------------


     EDDAV:  cpu time  227.02: real time  227.43
 BZINTS: Fermi energy:  9.412841;496.000000 electrons
         Band energy:***********;  BLOECHL correction:  0.000000
       DOS:  cpu time    0.06: real time    0.06
    --------------------------------------------
      LOOP:  cpu time  229.27: real time  229.69

 eigenvalue-minimisations  :  8960
 total energy-change (2. order) :-0.4980759E+04  (-0.4766367E+04)
 number of electron     495.0000000 magnetization 
 augmentation part      495.0000000 magnetization 

 Free energy of the ion-electron system (eV)
  ---------------------------------------------------
  alpha Z        PSCENC =      1306.21815755
  Ewald energy   TEWEN  =    -31784.06072787
  -Hartree energ DENC   =    -13350.88971924
  -exchange      EXHF   =         0.00000000
  -V(xc)+E(xc)   XCENC  =      1066.57537744
  PAW double counting   =     38443.77006490   -37898.04291699
  entropy T*S    EENTRO =         0.00000000
  eigenvalues    EBANDS =     -1082.81746957
  atomic energy  EATOM  =     44149.34201756
  ---------------------------------------------------
  free energy    TOTEN  =       850.09478378 eV

  energy without entropy =      850.09478378  energy(sigma->0) =      850.09478378


--------------------------------------------------------------------------------------------------------




----------------------------------------- Iteration    1(   3)  ---------------------------------------


     EDDAV:  cpu time  252.46: real time  252.96
 BZINTS: Fermi energy:  3.203711;496.000000 electrons
         Band energy:***********;  BLOECHL correction:  0.000000
       DOS:  cpu time    0.02: real time    0.02
    --------------------------------------------
      LOOP:  cpu time  252.54: real time  253.04

 eigenvalue-minimisations  : 10304
 total energy-change (2. order) :-0.9802968E+03  (-0.9374315E+03)
 number of electron     495.0000000 magnetization 
 augmentation part      495.0000000 magnetization 

 Free energy of the ion-electron system (eV)
  ---------------------------------------------------
  alpha Z        PSCENC =      1306.21815755
  Ewald energy   TEWEN  =    -31784.06072787
  -Hartree energ DENC   =    -13350.88971924
  -exchange      EXHF   =         0.00000000
  -V(xc)+E(xc)   XCENC  =      1066.57537744
  PAW double counting   =     38443.77006490   -37898.04291699
  entropy T*S    EENTRO =         0.00000000
  eigenvalues    EBANDS =     -2063.11427887
  atomic energy  EATOM  =     44149.34201756
  ---------------------------------------------------
  free energy    TOTEN  =      -130.20202552 eV

  energy without entropy =     -130.20202552  energy(sigma->0) =     -130.20202552


--------------------------------------------------------------------------------------------------------




----------------------------------------- Iteration    1(   4)  ---------------------------------------


     EDDAV:  cpu time  262.77: real time  263.28
 BZINTS: Fermi energy:  2.530469;496.000000 electrons
         Band energy:***********;  BLOECHL correction:  0.000000
       DOS:  cpu time    0.02: real time    0.02
    --------------------------------------------
      LOOP:  cpu time  262.80: real time  263.33

 eigenvalue-minimisations  : 10816
 total energy-change (2. order) :-0.8623698E+02  (-0.8481410E+02)
 number of electron     495.0000000 magnetization 
 augmentation part      495.0000000 magnetization 

 Free energy of the ion-electron system (eV)
  ---------------------------------------------------
  alpha Z        PSCENC =      1306.21815755
  Ewald energy   TEWEN  =    -31784.06072787
  -Hartree energ DENC   =    -13350.88971924
  -exchange      EXHF   =         0.00000000
  -V(xc)+E(xc)   XCENC  =      1066.57537744
  PAW double counting   =     38443.77006490   -37898.04291699
  entropy T*S    EENTRO =         0.00000000
  eigenvalues    EBANDS =     -2149.35126221
  atomic energy  EATOM  =     44149.34201756
  ---------------------------------------------------
  free energy    TOTEN  =      -216.43900886 eV

  energy without entropy =     -216.43900886  energy(sigma->0) =     -216.43900886


--------------------------------------------------------------------------------------------------------




----------------------------------------- Iteration    1(   5)  ---------------------------------------


     EDDAV:  cpu time  251.19: real time  297.59
 BZINTS: Fermi energy:  2.519922;496.000000 electrons
         Band energy:***********;  BLOECHL correction:  0.000000
       DOS:  cpu time    0.02: real time    0.03
    CHARGE:  cpu time    3.55: real time    7.11
    MIXING:  cpu time    0.02: real time    0.03
    --------------------------------------------
      LOOP:  cpu time  254.79: real time  304.78

 eigenvalue-minimisations  : 12576
 total energy-change (2. order) :-0.4586709E+01  (-0.4573812E+01)
 number of electron     496.0000006 magnetization 
 augmentation part      130.6029695 magnetization 

 Broyden mixing:
  rms(total) = 0.36814E+01    rms(broyden)= 0.36813E+01
  rms(prec ) = 0.40877E+01
  weight for this iteration     100.00

 Free energy of the ion-electron system (eV)
  ---------------------------------------------------
  alpha Z        PSCENC =      1306.21815755
  Ewald energy   TEWEN  =    -31784.06072787
  -Hartree energ DENC   =    -13350.88971924
  -exchange      EXHF   =         0.00000000
  -V(xc)+E(xc)   XCENC  =      1066.57537744
  PAW double counting   =     38443.77006490   -37898.04291699
  entropy T*S    EENTRO =         0.00000000
  eigenvalues    EBANDS =     -2153.93797110
  atomic energy  EATOM  =     44149.34201756
  ---------------------------------------------------
  free energy    TOTEN  =      -221.02571776 eV

  energy without entropy =     -221.02571776  energy(sigma->0) =     -221.02571776


--------------------------------------------------------------------------------------------------------




----------------------------------------- Iteration    1(   6)  ---------------------------------------


    POTLOK:  cpu time    0.21: real time    0.41
    SETDIJ:  cpu time    0.02: real time    0.03
     EDDAV:  cpu time  240.83: real time  305.47
 BZINTS: Fermi energy:  3.111719;496.000000 electrons
         Band energy:***********;  BLOECHL correction:  0.000000
       DOS:  cpu time    0.02: real time    0.02
    CHARGE:  cpu time    6.85: real time    6.86
    MIXING:  cpu time    0.01: real time    0.01
    --------------------------------------------
      LOOP:  cpu time  247.93: real time  312.81

 eigenvalue-minimisations  : 12960
 total energy-change (2. order) : 0.1485873E+02  (-0.2484707E+01)
 number of electron     496.0000006 magnetization 
 augmentation part      132.0406182 magnetization 

 Broyden mixing:
  rms(total) = 0.25795E+01    rms(broyden)= 0.25795E+01
  rms(prec ) = 0.26591E+01
  weight for this iteration     100.00

 eigenvalues of (default mixing * dielectric matrix)
  average eigenvalue GAMMA=   1.7140
  1.7140

 Free energy of the ion-electron system (eV)
  ---------------------------------------------------
  alpha Z        PSCENC =      1306.21815755
  Ewald energy   TEWEN  =    -31784.06072787
  -Hartree energ DENC   =    -13285.26579258
  -exchange      EXHF   =         0.00000000
  -V(xc)+E(xc)   XCENC  =      1074.53410627
  PAW double counting   =     46020.92928776   -45445.74846429
  entropy T*S    EENTRO =         0.00000000
  eigenvalues    EBANDS =     -2242.11557479
  atomic energy  EATOM  =     44149.34201756
  ---------------------------------------------------
  free energy    TOTEN  =      -206.16699038 eV

  energy without entropy =     -206.16699038  energy(sigma->0) =     -206.16699038


--------------------------------------------------------------------------------------------------------




----------------------------------------- Iteration    1(   7)  ---------------------------------------


    POTLOK:  cpu time    0.39: real time    0.39
    SETDIJ:  cpu time    0.03: real time    0.03
     EDDAV:  cpu time  294.96: real time  295.53
 BZINTS: Fermi energy:  3.430469;496.000000 electrons
         Band energy:***********;  BLOECHL correction:  0.000000
       DOS:  cpu time    0.02: real time    0.02
    CHARGE:  cpu time    6.74: real time    6.75
    MIXING:  cpu time    0.02: real time    0.02
    --------------------------------------------
      LOOP:  cpu time  302.16: real time  302.75

 eigenvalue-minimisations  : 12512
 total energy-change (2. order) : 0.2157515E+00  (-0.1767020E+01)
 number of electron     496.0000007 magnetization 
 augmentation part      132.9413125 magnetization 

 Broyden mixing:
  rms(total) = 0.11436E+01    rms(broyden)= 0.11436E+01
  rms(prec ) = 0.11731E+01
  weight for this iteration     100.00

 eigenvalues of (default mixing * dielectric matrix)
  average eigenvalue GAMMA=   1.7638
  1.2592  2.2684

 Free energy of the ion-electron system (eV)
  ---------------------------------------------------
  alpha Z        PSCENC =      1306.21815755
  Ewald energy   TEWEN  =    -31784.06072787
  -Hartree energ DENC   =    -13290.25351261
  -exchange      EXHF   =         0.00000000
  -V(xc)+E(xc)   XCENC  =      1079.27806032
  PAW double counting   =     54680.48871058   -54098.20495635
  entropy T*S    EENTRO =         0.00000000
  eigenvalues    EBANDS =     -2248.75898809
  atomic energy  EATOM  =     44149.34201756
  ---------------------------------------------------
  free energy    TOTEN  =      -205.95123890 eV

  energy without entropy =     -205.95123890  energy(sigma->0) =     -205.95123890


--------------------------------------------------------------------------------------------------------




----------------------------------------- Iteration    1(   8)  ---------------------------------------


    POTLOK:  cpu time    0.40: real time    0.40
    SETDIJ:  cpu time    0.03: real time    0.03
     EDDAV:  cpu time  298.61: real time  299.13
 BZINTS: Fermi energy:  3.317969;496.000000 electrons
         Band energy:***********;  BLOECHL correction:  0.000000
       DOS:  cpu time    0.02: real time    0.02
    CHARGE:  cpu time    6.73: real time    6.74
    MIXING:  cpu time    0.02: real time    0.01
    --------------------------------------------
      LOOP:  cpu time  305.81: real time  306.34

 eigenvalue-minimisations  : 12704
 total energy-change (2. order) : 0.6417590E-01  (-0.2592690E+00)
 number of electron     496.0000007 magnetization 
 augmentation part      132.4571854 magnetization 

 Broyden mixing:
  rms(total) = 0.35826E+00    rms(broyden)= 0.35826E+00
  rms(prec ) = 0.37198E+00
  weight for this iteration     100.00

 eigenvalues of (default mixing * dielectric matrix)
  average eigenvalue GAMMA=   1.5106
  2.3188  1.1066  1.1066

 Free energy of the ion-electron system (eV)
  ---------------------------------------------------
  alpha Z        PSCENC =      1306.21815755
  Ewald energy   TEWEN  =    -31784.06072787
  -Hartree energ DENC   =    -13311.65350258
  -exchange      EXHF   =         0.00000000
  -V(xc)+E(xc)   XCENC  =      1079.96023992
  PAW double counting   =     59250.56804601   -58674.79820420
  entropy T*S    EENTRO =         0.00000000
  eigenvalues    EBANDS =     -2221.46308941
  atomic energy  EATOM  =     44149.34201756
  ---------------------------------------------------
  free energy    TOTEN  =      -205.88706301 eV

  energy without entropy =     -205.88706301  energy(sigma->0) =     -205.88706301


--------------------------------------------------------------------------------------------------------




----------------------------------------- Iteration    1(   9)  ---------------------------------------


    POTLOK:  cpu time    0.40: real time    0.40
    SETDIJ:  cpu time    0.03: real time    0.03
     EDDAV:  cpu time  295.12: real time  295.63
 BZINTS: Fermi energy:  3.355469;496.000000 electrons
         Band energy:***********;  BLOECHL correction:  0.000000
       DOS:  cpu time    0.02: real time    0.02
    CHARGE:  cpu time    6.70: real time    6.71
    MIXING:  cpu time    0.02: real time    0.01
    --------------------------------------------
      LOOP:  cpu time  302.28: real time  302.81

 eigenvalue-minimisations  : 12512
 total energy-change (2. order) : 0.2983790E-01  (-0.2209925E-01)
 number of electron     496.0000007 magnetization 
 augmentation part      132.5818340 magnetization 

 Broyden mixing:
  rms(total) = 0.10379E+00    rms(broyden)= 0.10379E+00
  rms(prec ) = 0.10808E+00
  weight for this iteration     100.00

 eigenvalues of (default mixing * dielectric matrix)
  average eigenvalue GAMMA=   1.4676
  2.2485  1.1576  1.2322  1.2322

 Free energy of the ion-electron system (eV)
  ---------------------------------------------------
  alpha Z        PSCENC =      1306.21815755
  Ewald energy   TEWEN  =    -31784.06072787
  -Hartree energ DENC   =    -13300.54593422
  -exchange      EXHF   =         0.00000000
  -V(xc)+E(xc)   XCENC  =      1080.21395823
  PAW double counting   =     59977.79728406   -59399.12468691
  entropy T*S    EENTRO =         0.00000000
  eigenvalues    EBANDS =     -2235.69729352
  atomic energy  EATOM  =     44149.34201756
  ---------------------------------------------------
  free energy    TOTEN  =      -205.85722511 eV

  energy without entropy =     -205.85722511  energy(sigma->0) =     -205.85722511


--------------------------------------------------------------------------------------------------------




----------------------------------------- Iteration    1(  10)  ---------------------------------------


    POTLOK:  cpu time    0.21: real time    0.41
    SETDIJ:  cpu time    0.02: real time    0.03
     EDDAV:  cpu time  130.00: real time  260.23
 BZINTS: Fermi energy:  3.364844;496.000000 electrons
         Band energy:***********;  BLOECHL correction:  0.000000
       DOS:  cpu time    0.01: real time    0.03
    CHARGE:  cpu time    3.42: real time    6.85
    MIXING:  cpu time    0.01: real time    0.01
    --------------------------------------------
      LOOP:  cpu time  133.67: real time  267.57

 eigenvalue-minimisations  : 10560
 total energy-change (2. order) :-0.5156534E-02  (-0.2869392E-02)
 number of electron     496.0000007 magnetization 
 augmentation part      132.6141994 magnetization 

 Broyden mixing:
  rms(total) = 0.51245E-01    rms(broyden)= 0.51245E-01
  rms(prec ) = 0.54365E-01
  weight for this iteration     100.00

 eigenvalues of (default mixing * dielectric matrix)
  average eigenvalue GAMMA=   1.6423
  2.5336  2.3854  1.1862  1.1862  0.9200

 Free energy of the ion-electron system (eV)
  ---------------------------------------------------
  alpha Z        PSCENC =      1306.21815755
  Ewald energy   TEWEN  =    -31784.06072787
  -Hartree energ DENC   =    -13298.97415452
  -exchange      EXHF   =         0.00000000
  -V(xc)+E(xc)   XCENC  =      1080.26104896
  PAW double counting   =     59966.28011869   -59387.24388561
  entropy T*S    EENTRO =         0.00000000
  eigenvalues    EBANDS =     -2237.68495641
  atomic energy  EATOM  =     44149.34201756
  ---------------------------------------------------
  free energy    TOTEN  =      -205.86238164 eV

  energy without entropy =     -205.86238164  energy(sigma->0) =     -205.86238164


--------------------------------------------------------------------------------------------------------




----------------------------------------- Iteration    1(  11)  ---------------------------------------


    POTLOK:  cpu time    0.21: real time    0.41
    SETDIJ:  cpu time    0.02: real time    0.03
     EDDAV:  cpu time  193.26: real time  293.70
 BZINTS: Fermi energy:  3.355469;496.000000 electrons
         Band energy:***********;  BLOECHL correction:  0.000000
       DOS:  cpu time    0.02: real time    0.02
    CHARGE:  cpu time    6.68: real time    6.69
    MIXING:  cpu time    0.02: real time    0.01
    --------------------------------------------
      LOOP:  cpu time  200.20: real time  300.88

 eigenvalue-minimisations  : 12320
 total energy-change (2. order) :-0.2875284E-02  (-0.9924106E-03)
 number of electron     496.0000007 magnetization 
 augmentation part      132.5853525 magnetization 

 Broyden mixing:
  rms(total) = 0.24548E-01    rms(broyden)= 0.24548E-01
  rms(prec ) = 0.26531E-01
  weight for this iteration     100.00

 eigenvalues of (default mixing * dielectric matrix)
  average eigenvalue GAMMA=   1.5158
  2.4943  2.4943  1.1581  1.1581  1.0092  0.7809

 Free energy of the ion-electron system (eV)
  ---------------------------------------------------
  alpha Z        PSCENC =      1306.21815755
  Ewald energy   TEWEN  =    -31784.06072787
  -Hartree energ DENC   =    -13301.40259745
  -exchange      EXHF   =         0.00000000
  -V(xc)+E(xc)   XCENC  =      1080.38240086
  PAW double counting   =     59999.20278329   -59420.35439743
  entropy T*S    EENTRO =         0.00000000
  eigenvalues    EBANDS =     -2235.19289344
  atomic energy  EATOM  =     44149.34201756
  ---------------------------------------------------
  free energy    TOTEN  =      -205.86525693 eV

  energy without entropy =     -205.86525693  energy(sigma->0) =     -205.86525693


--------------------------------------------------------------------------------------------------------




----------------------------------------- Iteration    1(  12)  ---------------------------------------


    POTLOK:  cpu time    0.21: real time    0.41
    SETDIJ:  cpu time    0.02: real time    0.03
     EDDAV:  cpu time  149.53: real time  299.32
 BZINTS: Fermi energy:  3.357812;496.000000 electrons
         Band energy:***********;  BLOECHL correction:  0.000000
       DOS:  cpu time    0.01: real time    0.03
    CHARGE:  cpu time    3.40: real time    6.80
    MIXING:  cpu time    0.00: real time    0.01
    --------------------------------------------
      LOOP:  cpu time  153.18: real time  306.62

 eigenvalue-minimisations  : 12544
 total energy-change (2. order) : 0.2495917E-03  (-0.1403025E-03)
 number of electron     496.0000007 magnetization 
 augmentation part      132.5925916 magnetization 

 Broyden mixing:
  rms(total) = 0.12411E-01    rms(broyden)= 0.12411E-01
  rms(prec ) = 0.13158E-01
  weight for this iteration     100.00

 eigenvalues of (default mixing * dielectric matrix)
  average eigenvalue GAMMA=   1.5386
  2.3353  2.3353  1.5065  1.5065  1.0127  1.0370  1.0370

 Free energy of the ion-electron system (eV)
  ---------------------------------------------------
  alpha Z        PSCENC =      1306.21815755
  Ewald energy   TEWEN  =    -31784.06072787
  -Hartree energ DENC   =    -13301.52594843
  -exchange      EXHF   =         0.00000000
  -V(xc)+E(xc)   XCENC  =      1080.41286014
  PAW double counting   =     59930.15619472   -59351.12420657
  entropy T*S    EENTRO =         0.00000000
  eigenvalues    EBANDS =     -2235.28335444
  atomic energy  EATOM  =     44149.34201756
  ---------------------------------------------------
  free energy    TOTEN  =      -205.86500734 eV

  energy without entropy =     -205.86500734  energy(sigma->0) =     -205.86500734


--------------------------------------------------------------------------------------------------------




----------------------------------------- Iteration    1(  13)  ---------------------------------------


    POTLOK:  cpu time    0.21: real time    0.42
    SETDIJ:  cpu time    0.01: real time    0.03
     EDDAV:  cpu time  112.35: real time  224.90
 BZINTS: Fermi energy:  3.364844;496.000000 electrons
         Band energy:***********;  BLOECHL correction:  0.000000
       DOS:  cpu time    0.02: real time    0.03
    --------------------------------------------
      LOOP:  cpu time  112.59: real time  225.39

 eigenvalue-minimisations  :  8704
 total energy-change (2. order) :-0.8067911E-04  (-0.4346794E-04)
 number of electron     496.0000007 magnetization 
 augmentation part      132.5925916 magnetization 

 Free energy of the ion-electron system (eV)
  ---------------------------------------------------
  alpha Z        PSCENC =      1306.21815755
  Ewald energy   TEWEN  =    -31784.06072787
  -Hartree energ DENC   =    -13301.91117251
  -exchange      EXHF   =         0.00000000
  -V(xc)+E(xc)   XCENC  =      1080.44311675
  PAW double counting   =     59935.52267789   -59356.44407947
  entropy T*S    EENTRO =         0.00000000
  eigenvalues    EBANDS =     -2234.97507792
  atomic energy  EATOM  =     44149.34201756
  ---------------------------------------------------
  free energy    TOTEN  =      -205.86508802 eV

  energy without entropy =     -205.86508802  energy(sigma->0) =     -205.86508802


--------------------------------------------------------------------------------------------------------




 average (electrostatic) potential at core
  the test charge radii are     1.0698  1.0774  0.9698
  (the norm of the test charge is              1.0000)
       1 -37.4991       2 -37.4474       3 -37.4475       4 -37.4475       5 -37.4448
       6 -37.5017       7 -37.4447       8 -37.4447       9 -36.8693      10 -97.0971
      11 -97.0971      12 -97.0971      13 -97.0971      14 -97.0971      15 -97.0971
      16 -97.0871      17 -97.0025      18 -97.0053      19 -97.0053      20 -97.0025
      21 -97.0870      22 -97.0026      23 -97.0052      24 -97.0869      25 -87.0147
      26 -87.0966      27 -87.0964      28 -87.0966      29 -87.0996      30 -87.0342
      31 -87.0998      32 -87.0997      33 -87.0998      34 -87.0995      35 -87.0999
      36 -87.0965      37 -87.0965      38 -87.0965      39 -87.0830      40 -86.8698
      41 -87.1232      42 -87.1165      43 -87.0830      44 -86.8680      45 -86.8679
      46 -87.1166      47 -87.1232      48 -86.8700      49 -87.0830      50 -86.8696
      51 -87.0831      52 -87.1166      53 -86.8684      54 -87.1232      55 -87.0829
      56 -87.0832
 
 
 
 E-fermi :   3.3648     XC(G=0):  -9.3828     alpha+bet : -9.6708


 k-point     1 :       0.0000    0.0000    0.0000
  band No.  band energies     occupation 
      1     -10.7668      2.00000
      2     -10.7667      2.00000
      3     -10.7515      2.00000
      4     -10.6756      2.00000
      5     -10.6653      2.00000
      6     -10.6653      2.00000
      7     -10.6587      2.00000
      8     -10.6414      2.00000
      9     -10.6414      2.00000
     10     -10.5960      2.00000
     11     -10.5800      2.00000
     12     -10.5800      2.00000
     13     -10.5706      2.00000
     14     -10.5184      2.00000
     15     -10.5184      2.00000
     16     -10.4607      2.00000
     17     -10.4607      2.00000
     18     -10.4590      2.00000
     19     -10.4447      2.00000
     20     -10.4141      2.00000
     21     -10.4140      2.00000
     22     -10.4068      2.00000
     23     -10.3906      2.00000
     24     -10.3906      2.00000
     25     -10.3719      2.00000
     26     -10.3371      2.00000
     27     -10.3345      2.00000
     28     -10.3345      2.00000
     29     -10.3319      2.00000
     30     -10.3318      2.00000
     31     -10.3270      2.00000
     32     -10.3270      2.00000
     33     -10.3137      2.00000
     34     -10.3137      2.00000
     35     -10.3044      2.00000
     36     -10.3015      2.00000
     37     -10.2982      2.00000
     38     -10.2945      2.00000
     39     -10.2945      2.00000
     40     -10.2892      2.00000
     41     -10.2892      2.00000
     42     -10.2880      2.00000
     43     -10.2879      2.00000
     44     -10.2752      2.00000
     45     -10.2726      2.00000
     46     -10.2719      2.00000
     47     -10.2703      2.00000
     48     -10.2703      2.00000
     49     -10.2668      2.00000
     50     -10.2668      2.00000
     51     -10.2625      2.00000
     52     -10.2624      2.00000
     53     -10.2615      2.00000
     54     -10.2539      2.00000
     55     -10.2528      2.00000
     56     -10.2500      2.00000
     57     -10.2401      2.00000
     58     -10.2362      2.00000
     59     -10.2361      2.00000
     60     -10.2025      2.00000
     61     -10.2024      2.00000
     62     -10.1998      2.00000
     63     -10.1998      2.00000
     64     -10.1917      2.00000
     65     -10.1848      2.00000
     66     -10.1848      2.00000
     67     -10.1838      2.00000
     68     -10.1822      2.00000
     69     -10.1821      2.00000
     70     -10.1716      2.00000
     71     -10.1716      2.00000
     72     -10.1673      2.00000
     73     -10.1673      2.00000
     74     -10.1616      2.00000
     75     -10.1549      2.00000
     76      -9.4080      2.00000
     77      -8.9660      2.00000
     78      -8.9660      2.00000
     79      -8.9586      2.00000
     80      -8.9586      2.00000
     81      -8.8629      2.00000
     82      -8.7565      2.00000
     83      -8.4400      2.00000
     84      -8.2854      2.00000
     85      -8.2854      2.00000
     86      -8.2583      2.00000
     87      -8.2162      2.00000
     88      -8.2162      2.00000
     89      -8.1954      2.00000
     90      -8.1248      2.00000
     91      -8.1248      2.00000
     92      -8.1096      2.00000
     93      -7.9972      2.00000
     94      -7.9972      2.00000
     95      -7.9613      2.00000
     96      -7.9403      2.00000
     97      -7.8848      2.00000
     98      -7.8847      2.00000
     99      -7.6240      2.00000
    100      -7.6239      2.00000
    101      -7.5680      2.00000
    102      -7.5219      2.00000
    103      -7.5218      2.00000
    104      -7.5199      2.00000
    105      -7.5182      2.00000
    106      -7.5182      2.00000
    107      -7.4468      2.00000
    108      -4.2957      2.00000
    109      -4.2885      2.00000
    110      -4.2885      2.00000
    111      -4.2884      2.00000
    112      -4.2883      2.00000
    113      -4.2859      2.00000
    114      -4.2025      2.00000
    115      -4.2025      2.00000
    116      -4.2004      2.00000
    117      -4.2004      2.00000
    118      -4.1873      2.00000
    119      -4.1856      2.00000
    120      -4.1583      2.00000
    121      -4.1583      2.00000
    122      -4.1485      2.00000
    123      -4.1485      2.00000
    124      -4.1457      2.00000
    125      -4.1457      2.00000
    126      -4.1187      2.00000
    127      -4.1182      2.00000
    128      -4.1181      2.00000
    129      -4.1067      2.00000
    130      -4.1067      2.00000
    131      -4.1062      2.00000
    132      -4.1062      2.00000
    133      -4.0950      2.00000
    134      -4.0945      2.00000
    135      -4.0945      2.00000
    136      -4.0936      2.00000
    137      -4.0931      2.00000
    138      -4.0921      2.00000
    139      -4.0921      2.00000
    140      -4.0918      2.00000
    141      -4.0912      2.00000
    142      -4.0786      2.00000
    143      -4.0786      2.00000
    144      -4.0704      2.00000
    145      -4.0652      2.00000
    146      -4.0620      2.00000
    147      -4.0620      2.00000
    148      -3.5903      2.00000
    149      -3.5584      2.00000
    150      -3.5584      2.00000
    151      -3.5216      2.00000
    152      -3.5215      2.00000
    153      -2.1280      2.00000
    154      -2.0094      2.00000
    155      -2.0094      2.00000
    156      -1.9888      2.00000
    157      -1.6367      2.00000
    158      -1.6216      2.00000
    159      -1.6215      2.00000
    160      -1.5731      2.00000
    161      -1.5731      2.00000
    162      -1.5119      2.00000
    163      -1.3479      2.00000
    164      -1.2078      2.00000
    165      -1.2077      2.00000
    166      -1.1898      2.00000
    167      -1.1897      2.00000
    168      -1.1309      2.00000
    169      -0.4163      2.00000
    170      -0.3424      2.00000
    171      -0.3424      2.00000
    172      -0.2595      2.00000
    173      -0.2594      2.00000
    174      -0.2370      2.00000
    175      -0.2370      2.00000
    176      -0.1940      2.00000
    177      -0.1238      2.00000
    178       0.3823      2.00000
    179       0.3943      2.00000
    180       0.4477      2.00000
    181       0.4478      2.00000
    182       0.5144      2.00000
    183       0.5145      2.00000
    184       0.7243      2.00000
    185       0.7243      2.00000
    186       0.7532      2.00000
    187       0.7533      2.00000
    188       0.7558      2.00000
    189       0.8837      2.00000
    190       0.9440      2.00000
    191       0.9784      2.00000
    192       0.9784      2.00000
    193       0.9995      2.00000
    194       1.0134      2.00000
    195       1.0195      2.00000
    196       1.0195      2.00000
    197       1.0246      2.00000
    198       1.0804      2.00000
    199       1.0805      2.00000
    200       1.1088      2.00000
    201       1.1089      2.00000
    202       1.1613      2.00000
    203       1.1613      2.00000
    204       1.2674      2.00000
    205       1.5192      2.00000
    206       1.5896      2.00000
    207       1.5896      2.00000
    208       1.6449      2.00000
    209       1.6449      2.00000
    210       1.6471      2.00000
    211       1.6543      2.00000
    212       1.6735      2.00000
    213       1.6736      2.00000
    214       1.9301      2.00000
    215       1.9558      2.00000
    216       1.9559      2.00000
    217       2.0204      2.00000
    218       2.0205      2.00000
    219       2.0982      2.00000
    220       2.2493      2.00000
    221       2.2624      2.00000
    222       2.2711      2.00000
    223       2.2711      2.00000
    224       2.3525      2.00000
    225       2.3526      2.00000
    226       2.6965      2.00000
    227       2.6966      2.00000
    228       2.7211      2.00000
    229       2.7853      2.00000
    230       2.8068      2.00000
    231       2.8118      2.00000
    232       2.8119      2.00000
    233       2.8835      2.00000
    234       2.8835      2.00000
    235       2.8849      2.00000
    236       2.8850      2.00000
    237       2.9140      2.00000
    238       2.9525      2.00000
    239       2.9525      2.00000
    240       3.0050      2.00000
    241       3.0341      2.00000
    242       3.0341      2.00000
    243       3.0417      2.00000
    244       3.0418      2.00000
    245       3.0432      2.00000
    246       3.0961      2.00000
    247       3.3592      2.00000
    248       3.3593      2.00000
    249       4.2283      0.00000
    250       5.1375      0.00000
    251       5.1376      0.00000
    252       5.2536      0.00000
    253       5.5235      0.00000
    254       6.2931      0.00000
    255       6.2932      0.00000
    256       6.3255      0.00000
    257       6.3256      0.00000
    258       6.3680      0.00000
    259       6.4157      0.00000
    260       6.5700      0.00000
    261       6.5975      0.00000
    262       6.5976      0.00000
    263       6.6389      0.00000
    264       6.6390      0.00000
    265       6.9850      0.00000
    266       7.3433      0.00000
    267       7.4771      0.00000
    268       7.5394      0.00000
    269       7.5394      0.00000
    270       7.6098      0.00000
    271       7.6099      0.00000
    272       7.6255      0.00000
    273       7.6415      0.00000
    274       7.6416      0.00000
    275       7.8054      0.00000
    276       8.5386      0.00000
    277       8.5386      0.00000
    278       8.5504      0.00000
    279       8.5504      0.00000
    280       8.5836      0.00000
    281       8.5979      0.00000
    282       8.7805      0.00000
    283       8.7805      0.00000
    284       8.7846      0.00000
    285       8.8136      0.00000
    286       8.9150      0.00000
    287       8.9150      0.00000
    288       9.0945      0.00000
    289       9.0945      0.00000
    290       9.1671      0.00000
    291       9.5514      0.00000
    292       9.5515      0.00000
    293       9.8202      0.00000
    294       9.8232      0.00000
    295       9.8232      0.00000
    296       9.8364      0.00000
    297       9.8364      0.00000
    298       9.8473      0.00000
    299       9.9427      0.00000
    300       9.9429      0.00000
    301       9.9935      0.00000
    302      10.0593      0.00000
    303      10.0979      0.00000
    304      10.0985      0.00000
    305      10.1420      0.00000
    306      10.1501      0.00000
    307      10.1514      0.00000
    308      10.2144      0.00000
    309      10.2326      0.00000
    310      10.2354      0.00000
    311      10.2559      0.00000
    312      10.2616      0.00000
    313      10.2713      0.00000
    314      10.3105      0.00000
    315      10.3653      0.00000
    316      10.3811      0.00000
    317      10.3882      0.00000
    318      10.3990      0.00000
    319      10.4409      0.00000
    320      10.4451      0.00000

 k-point     2 :       0.3333    0.0000    0.0000
  band No.  band energies     occupation 
      1     -10.7547      2.00000
      2     -10.7506      2.00000
      3     -10.7359      2.00000
      4     -10.7043      2.00000
      5     -10.6961      2.00000
      6     -10.6842      2.00000
      7     -10.6724      2.00000
      8     -10.6470      2.00000
      9     -10.6412      2.00000
     10     -10.6130      2.00000
     11     -10.5667      2.00000
     12     -10.5666      2.00000
     13     -10.5358      2.00000
     14     -10.5186      2.00000
     15     -10.4834      2.00000
     16     -10.4674      2.00000
     17     -10.4614      2.00000
     18     -10.4545      2.00000
     19     -10.4355      2.00000
     20     -10.4116      2.00000
     21     -10.4107      2.00000
     22     -10.4016      2.00000
     23     -10.3957      2.00000
     24     -10.3875      2.00000
     25     -10.3759      2.00000
     26     -10.3627      2.00000
     27     -10.3437      2.00000
     28     -10.3356      2.00000
     29     -10.3348      2.00000
     30     -10.3302      2.00000
     31     -10.3248      2.00000
     32     -10.3194      2.00000
     33     -10.3145      2.00000
     34     -10.3111      2.00000
     35     -10.3083      2.00000
     36     -10.3017      2.00000
     37     -10.3000      2.00000
     38     -10.2953      2.00000
     39     -10.2941      2.00000
     40     -10.2916      2.00000
     41     -10.2900      2.00000
     42     -10.2895      2.00000
     43     -10.2849      2.00000
     44     -10.2814      2.00000
     45     -10.2750      2.00000
     46     -10.2707      2.00000
     47     -10.2706      2.00000
     48     -10.2673      2.00000
     49     -10.2664      2.00000
     50     -10.2644      2.00000
     51     -10.2617      2.00000
     52     -10.2617      2.00000
     53     -10.2587      2.00000
     54     -10.2545      2.00000
     55     -10.2534      2.00000
     56     -10.2448      2.00000
     57     -10.2417      2.00000
     58     -10.2398      2.00000
     59     -10.2361      2.00000
     60     -10.2023      2.00000
     61     -10.2010      2.00000
     62     -10.2000      2.00000
     63     -10.1985      2.00000
     64     -10.1910      2.00000
     65     -10.1874      2.00000
     66     -10.1851      2.00000
     67     -10.1839      2.00000
     68     -10.1820      2.00000
     69     -10.1819      2.00000
     70     -10.1727      2.00000
     71     -10.1715      2.00000
     72     -10.1685      2.00000
     73     -10.1670      2.00000
     74     -10.1609      2.00000
     75     -10.1571      2.00000
     76      -9.3522      2.00000
     77      -9.1748      2.00000
     78      -8.9618      2.00000
     79      -8.9574      2.00000
     80      -8.8986      2.00000
     81      -8.8243      2.00000
     82      -8.6470      2.00000
     83      -8.4928      2.00000
     84      -8.2850      2.00000
     85      -8.2826      2.00000
     86      -8.2719      2.00000
     87      -8.2499      2.00000
     88      -8.2383      2.00000
     89      -8.2266      2.00000
     90      -8.1823      2.00000
     91      -8.1512      2.00000
     92      -8.1265      2.00000
     93      -8.0782      2.00000
[...]
 13        0.723   0.597   9.950  11.270
 14        0.723   0.597   9.950  11.270
 15        0.723   0.597   9.950  11.270
 16        0.723   0.601   9.951  11.275
 17        0.723   0.599   9.951  11.273
 18        0.724   0.598   9.950  11.272
 19        0.724   0.598   9.950  11.272
 20        0.723   0.599   9.951  11.273
 21        0.723   0.601   9.951  11.275
 22        0.723   0.599   9.951  11.273
 23        0.724   0.598   9.950  11.272
 24        0.723   0.601   9.951  11.275
 25        1.338   2.384   0.000   3.722
 26        1.339   2.383   0.000   3.722
 27        1.339   2.383   0.000   3.722
 28        1.339   2.383   0.000   3.722
 29        1.339   2.383   0.000   3.723
 30        1.338   2.385   0.000   3.723
 31        1.339   2.383   0.000   3.723
 32        1.339   2.383   0.000   3.723
 33        1.339   2.384   0.000   3.723
 34        1.339   2.384   0.000   3.723
 35        1.339   2.384   0.000   3.723
 36        1.339   2.383   0.000   3.722
 37        1.339   2.383   0.000   3.722
 38        1.339   2.383   0.000   3.722
 39        1.339   2.380   0.000   3.719
 40        1.337   2.387   0.000   3.723
 41        1.339   2.384   0.000   3.722
 42        1.339   2.384   0.000   3.722
 43        1.339   2.381   0.000   3.720
 44        1.336   2.386   0.000   3.723
 45        1.336   2.386   0.000   3.723
 46        1.339   2.384   0.000   3.722
 47        1.339   2.384   0.000   3.722
 48        1.337   2.387   0.000   3.723
 49        1.339   2.380   0.000   3.719
 50        1.337   2.387   0.000   3.723
 51        1.339   2.381   0.000   3.720
 52        1.339   2.384   0.000   3.722
 53        1.336   2.386   0.000   3.723
 54        1.339   2.384   0.000   3.722
 55        1.339   2.380   0.000   3.719
 56        1.339   2.381   0.000   3.720
------------------------------------------------
tot       57.369  87.825 235.349 380.543
 
    CHARGE:  cpu time    3.38: real time    6.78
    FORLOC:  cpu time    0.07: real time    0.14
    FORNL :  cpu time   55.93: real time  111.87
    FORCOR:  cpu time    0.25: real time    0.51
    FORHAR:  cpu time    0.11: real time    0.23
    MIXING:  cpu time    0.01: real time    0.01
    OFIELD:  cpu time    0.00: real time    0.00

 VOLUME and BASIS-vectors are now :
 -----------------------------------------------------------------------------
  energy-cutoff  :      600.00
  volume of cell :     1339.13
      direct lattice vectors                 reciprocal lattice vectors
    11.022353692  0.000000000  0.000000000     0.090724724  0.000000000  0.000000000
     0.000000000 11.022353692  0.000000000     0.000000000  0.090724724  0.000000000
     0.000000000  0.000000000 11.022353692     0.000000000  0.000000000  0.090724724

  length of vectors
    11.022353692 11.022353692 11.022353692     0.090724724  0.090724724  0.090724724


 FORCES acting on ions
    electron-ion (+dipol)            ewald-force                    non-local-force                 convergence-correction
 -----------------------------------------------------------------------------------------------
   0.593E+00 0.611E+00 0.638E+00   -.691E+00 -.709E+00 -.735E+00   0.926E-01 0.919E-01 0.915E-01   0.218E-02 0.226E-02 0.222E-02
   0.616E+01 0.471E+01 0.468E+01   -.642E+01 -.429E+01 -.426E+01   0.272E+00 -.415E+00 -.414E+00   0.125E-02 -.168E-02 -.164E-02
   0.470E+01 0.472E+01 0.621E+01   -.427E+01 -.429E+01 -.647E+01   -.415E+00 -.415E+00 0.273E+00   -.169E-02 -.165E-02 0.131E-02
   0.471E+01 0.618E+01 0.467E+01   -.428E+01 -.644E+01 -.424E+01   -.415E+00 0.273E+00 -.415E+00   -.158E-02 0.128E-02 -.173E-02
   -.561E+01 -.671E+01 -.566E+01   0.517E+01 0.696E+01 0.522E+01   0.448E+00 -.248E+00 0.449E+00   0.165E-02 -.147E-02 0.160E-02
   0.121E+00 0.135E+00 0.139E+00   0.477E-01 0.343E-01 0.296E-01   -.167E+00 -.167E+00 -.167E+00   -.224E-02 -.229E-02 -.237E-02
   -.673E+01 -.562E+01 -.561E+01   0.697E+01 0.517E+01 0.517E+01   -.248E+00 0.448E+00 0.448E+00   -.143E-02 0.158E-02 0.160E-02
   -.565E+01 -.564E+01 -.671E+01   0.521E+01 0.520E+01 0.696E+01   0.449E+00 0.448E+00 -.248E+00   0.156E-02 0.165E-02 -.143E-02
   0.298E+00 0.237E+00 0.213E+00   -.303E+00 -.242E+00 -.219E+00   0.470E-02 0.644E-02 0.707E-02   0.165E-03 0.201E-03 0.232E-03
   0.400E+00 0.276E+00 -.503E-01   -.310E+00 -.363E+00 0.379E-01   -.918E-01 0.856E-01 0.183E-01   -.221E-02 0.227E-02 0.606E-04
   0.287E+00 -.622E-01 0.414E+00   -.374E+00 0.495E-01 -.324E+00   0.854E-01 0.190E-01 -.920E-01   0.220E-02 -.833E-04 -.214E-02
   -.698E-01 0.394E+00 0.282E+00   0.568E-01 -.304E+00 -.370E+00   0.192E-01 -.915E-01 0.863E-01   -.343E-04 -.218E-02 0.236E-02
   0.276E+00 0.430E+00 -.498E-01   -.363E+00 -.339E+00 0.374E-01   0.856E-01 -.926E-01 0.187E-01   0.228E-02 -.219E-02 -.648E-04
   0.386E+00 -.692E-01 0.281E+00   -.296E+00 0.561E-01 -.368E+00   -.914E-01 0.194E-01 0.859E-01   -.218E-02 0.157E-04 0.229E-02
   -.836E-01 0.284E+00 0.407E+00   0.704E-01 -.371E+00 -.317E+00   0.194E-01 0.860E-01 -.919E-01   0.690E-06 0.229E-02 -.213E-02
   -.504E+00 0.148E+00 0.196E+00   0.518E+00 -.152E+00 -.199E+00   -.214E-02 0.667E-02 0.514E-02   -.248E-04 -.137E-04 -.131E-04
   -.255E+01 -.253E+01 -.534E+01   0.316E+01 0.315E+01 0.525E+01   -.605E+00 -.607E+00 0.784E-01   -.398E-02 -.403E-02 0.107E-02
   0.131E+01 0.716E+01 0.130E+01   -.194E+01 -.708E+01 -.194E+01   0.643E+00 -.928E-01 0.642E+00   0.392E-02 -.878E-03 0.395E-02
   0.130E+01 0.130E+01 0.712E+01   -.193E+01 -.193E+01 -.704E+01   0.643E+00 0.642E+00 -.916E-01   0.394E-02 0.401E-02 -.865E-03
   -.249E+01 -.532E+01 -.253E+01   0.311E+01 0.522E+01 0.315E+01   -.607E+00 0.780E-01 -.608E+00   -.406E-02 0.110E-02 -.411E-02
   0.170E+00 -.519E+00 0.153E+00   -.173E+00 0.532E+00 -.157E+00   0.530E-02 -.195E-02 0.671E-02   -.500E-04 -.231E-04 -.905E-05
   -.527E+01 -.252E+01 -.249E+01   0.517E+01 0.314E+01 0.311E+01   0.774E-01 -.605E+00 -.606E+00   0.102E-02 -.409E-02 -.404E-02
   0.719E+01 0.130E+01 0.133E+01   -.712E+01 -.194E+01 -.196E+01   -.934E-01 0.644E+00 0.643E+00   -.818E-03 0.394E-02 0.397E-02
   0.168E+00 0.189E+00 -.516E+00   -.171E+00 -.191E+00 0.530E+00   0.519E-02 0.478E-02 -.241E-02   -.152E-03 -.120E-03 -.663E-04
   0.557E+02 0.557E+02 0.557E+02   -.549E+02 -.549E+02 -.549E+02   -.813E+00 -.813E+00 -.814E+00   -.135E-03 -.172E-03 -.182E-03
   -.593E+02 -.568E+02 0.560E+02   0.588E+02 0.559E+02 -.554E+02   0.518E+00 0.845E+00 -.587E+00   -.880E-03 -.547E-03 0.177E-02
   -.568E+02 0.560E+02 -.593E+02   0.560E+02 -.554E+02 0.588E+02   0.845E+00 -.587E+00 0.518E+00   -.556E-03 0.179E-02 -.904E-03
   0.560E+02 -.593E+02 -.568E+02   -.554E+02 0.588E+02 0.560E+02   -.587E+00 0.518E+00 0.845E+00   0.177E-02 -.892E-03 -.536E-03
   0.574E+02 0.594E+02 -.564E+02   -.566E+02 -.588E+02 0.558E+02   -.852E+00 -.541E+00 0.592E+00   0.509E-03 0.924E-03 -.179E-02
   -.567E+02 -.567E+02 -.567E+02   0.559E+02 0.559E+02 0.559E+02   0.797E+00 0.796E+00 0.795E+00   0.714E-04 0.124E-03 0.911E-04
   0.594E+02 -.564E+02 0.575E+02   -.589E+02 0.558E+02 -.566E+02   -.542E+00 0.592E+00 -.852E+00   0.864E-03 -.178E-02 0.502E-03
   -.564E+02 0.574E+02 0.594E+02   0.559E+02 -.566E+02 -.589E+02   0.594E+00 -.852E+00 -.542E+00   -.177E-02 0.504E-03 0.907E-03
   0.594E+02 0.574E+02 -.564E+02   -.589E+02 -.566E+02 0.558E+02   -.542E+00 -.853E+00 0.593E+00   0.895E-03 0.476E-03 -.177E-02
   0.574E+02 -.564E+02 0.594E+02   -.566E+02 0.559E+02 -.589E+02   -.853E+00 0.594E+00 -.541E+00   0.486E-03 -.176E-02 0.919E-03
   -.564E+02 0.594E+02 0.574E+02   0.558E+02 -.589E+02 -.566E+02   0.593E+00 -.541E+00 -.852E+00   -.177E-02 0.876E-03 0.509E-03
   -.568E+02 -.593E+02 0.560E+02   0.560E+02 0.588E+02 -.554E+02   0.845E+00 0.517E+00 -.587E+00   -.522E-03 -.911E-03 0.175E-02
   -.593E+02 0.560E+02 -.568E+02   0.588E+02 -.554E+02 0.559E+02   0.517E+00 -.587E+00 0.845E+00   -.855E-03 0.176E-02 -.525E-03
   0.560E+02 -.568E+02 -.593E+02   -.554E+02 0.560E+02 0.588E+02   -.588E+00 0.845E+00 0.518E+00   0.177E-02 -.554E-03 -.884E-03
   0.582E+02 0.599E+02 0.599E+02   -.575E+02 -.593E+02 -.593E+02   -.686E+00 -.566E+00 -.565E+00   -.360E-03 0.171E-02 0.169E-02
   -.594E+02 -.594E+02 0.392E+02   0.590E+02 0.590E+02 -.376E+02   0.453E+00 0.452E+00 -.158E+01   -.762E-03 -.747E-03 -.197E-02
   -.577E+02 0.569E+02 -.577E+02   0.571E+02 -.562E+02 0.570E+02   0.669E+00 -.711E+00 0.669E+00   -.715E-03 -.146E-03 -.766E-03
   0.570E+02 0.570E+02 -.567E+02   -.563E+02 -.563E+02 0.561E+02   -.684E+00 -.684E+00 0.679E+00   0.720E-03 0.745E-03 0.140E-03
   -.579E+02 -.591E+02 -.591E+02   0.572E+02 0.585E+02 0.585E+02   0.711E+00 0.624E+00 0.623E+00   0.413E-03 -.168E-02 -.166E-02
   0.602E+02 -.400E+02 0.602E+02   -.598E+02 0.385E+02 -.597E+02   -.425E+00 0.153E+01 -.425E+00   0.841E-03 0.195E-02 0.808E-03
   0.602E+02 0.602E+02 -.400E+02   -.598E+02 -.598E+02 0.385E+02   -.425E+00 -.425E+00 0.153E+01   0.802E-03 0.839E-03 0.194E-02
   0.570E+02 -.567E+02 0.570E+02   -.563E+02 0.560E+02 -.563E+02   -.684E+00 0.679E+00 -.684E+00   0.720E-03 0.110E-03 0.745E-03
   -.577E+02 -.577E+02 0.569E+02   0.571E+02 0.571E+02 -.562E+02   0.669E+00 0.669E+00 -.712E+00   -.741E-03 -.756E-03 -.102E-03
   -.594E+02 0.392E+02 -.594E+02   0.589E+02 -.377E+02 0.590E+02   0.452E+00 -.158E+01 0.454E+00   -.772E-03 -.195E-02 -.762E-03
   0.599E+02 0.582E+02 0.599E+02   -.593E+02 -.575E+02 -.593E+02   -.566E+00 -.686E+00 -.565E+00   0.172E-02 -.401E-03 0.171E-02
   0.392E+02 -.594E+02 -.594E+02   -.376E+02 0.590E+02 0.590E+02   -.158E+01 0.452E+00 0.453E+00   -.194E-02 -.772E-03 -.745E-03
   -.591E+02 -.579E+02 -.591E+02   0.585E+02 0.572E+02 0.585E+02   0.623E+00 0.710E+00 0.623E+00   -.168E-02 0.426E-03 -.170E-02
   -.567E+02 0.570E+02 0.570E+02   0.560E+02 -.563E+02 -.563E+02   0.679E+00 -.683E+00 -.684E+00   0.130E-03 0.711E-03 0.714E-03
   -.401E+02 0.602E+02 0.602E+02   0.385E+02 -.597E+02 -.597E+02   0.153E+01 -.426E+00 -.426E+00   0.194E-02 0.812E-03 0.829E-03
   0.569E+02 -.577E+02 -.577E+02   -.562E+02 0.571E+02 0.570E+02   -.711E+00 0.669E+00 0.669E+00   -.128E-03 -.701E-03 -.722E-03
   0.599E+02 0.599E+02 0.582E+02   -.593E+02 -.593E+02 -.575E+02   -.566E+00 -.565E+00 -.687E+00   0.169E-02 0.173E-02 -.376E-03
   -.591E+02 -.591E+02 -.579E+02   0.585E+02 0.585E+02 0.572E+02   0.624E+00 0.624E+00 0.710E+00   -.170E-02 -.168E-02 0.441E-03
 -----------------------------------------------------------------------------------------------
   -.123E+00 -.128E+00 -.128E+00   -.156E-12 -.327E-12 0.213E-13   0.124E+00 0.128E+00 0.129E+00   -.227E-03 -.807E-04 0.127E-03
 
 
 POSITION                                       TOTAL-FORCE (eV/Angst)
 -----------------------------------------------------------------------------------
     11.02138     11.02139     11.02143        -0.003109     -0.003409     -0.003780
      0.01434      5.52716      5.52715         0.012940      0.010380      0.011209
      5.52707      5.52718      0.01439         0.011008      0.010842      0.012719
      5.52721      0.01439      5.52711         0.010845      0.013070      0.011219
      8.24116      2.74231      8.24112         0.007036     -0.002363      0.006975
      2.75678      2.75681      2.75686        -0.000156     -0.000179     -0.000104
      2.74241      8.24116      8.24118        -0.002370      0.006636      0.006414
      8.24116      8.24116      2.74229         0.007153      0.006922     -0.002319
      6.89055      6.88997      6.88993        -0.000353      0.001096      0.001205
      4.13754      9.64364      1.37466        -0.003449      0.001186      0.005987
      9.64365      1.37461      4.13755         0.000953      0.006167     -0.003554
      1.37462      4.13754      9.64364         0.006135     -0.003443      0.000831
      9.64365      4.13753      1.37464         0.001150     -0.003755      0.006246
      4.13754      1.37463      9.64365        -0.003520      0.006247      0.000950
      1.37460      9.64365      4.13756         0.006206      0.001049     -0.003311
      6.89221      1.37743      1.37743         0.011337      0.002631      0.002222
      4.15112      4.15105      6.89717         0.007758      0.007780     -0.015220
      9.62346      6.88499      9.62352         0.010430     -0.018384      0.010789
      9.62347      9.62350      6.88503         0.010583      0.010689     -0.017958
      4.15100      6.89718      4.15107         0.007251     -0.015137      0.007784
      1.37745      6.89222      1.37742         0.002139      0.011397      0.002771
      6.89712      4.15105      4.15092        -0.015387      0.008065      0.007359
      6.88499      9.62344      9.62348        -0.018698      0.010648      0.010614
      1.37743      1.37743      6.89224         0.002131      0.002189      0.011279
      4.23289      4.23304      4.23310         0.001869      0.001341      0.000890
      6.77815      1.26338      9.76283         0.017036      0.013987      0.001680
      1.26334      9.76280      6.77817         0.014126      0.001644      0.017301
      9.76289      6.77809      1.26339         0.001496      0.017530      0.014146
      1.49434      7.00569      4.01560        -0.041698     -0.039876      0.005433
      9.54336      9.54341      9.54359         0.009492      0.009212      0.008503
      7.00569      4.01557      1.49445        -0.040314      0.005741     -0.042681
      4.01532      1.49444      7.00567         0.007652     -0.042608     -0.040464
      7.00574      1.49441      4.01531        -0.040579     -0.042489      0.006969
      1.49439      4.01531      7.00570        -0.042465      0.007457     -0.040371
      4.01529      7.00572      1.49430         0.006820     -0.040288     -0.041562
      1.26332      6.77820      9.76277         0.014023      0.016874      0.001779
      6.77817      9.76279      1.26335         0.016795      0.001931      0.013801
      9.76281      1.26330      6.77817         0.001623      0.014136      0.017210
      4.22545      9.74626      9.74616        -0.015982     -0.004490     -0.003985
      6.76564      6.76592      4.19213         0.010636      0.009432     -0.015576
      1.26957      4.23900      1.26954         0.005706     -0.012551      0.005682
      1.48730      1.48728      9.54736        -0.000822     -0.000710     -0.010595
      9.55472      4.02746      4.02747         0.022181      0.009935      0.009818
      7.00851      9.58974      7.00853        -0.003791      0.005193     -0.003780
      7.00848      7.00850      9.58985        -0.003557     -0.003842      0.004517
      1.48727      9.54743      1.48733        -0.000428     -0.011394     -0.000442
      1.26946      1.26957      4.23904         0.006061      0.005606     -0.012815
      6.76604      4.19221      6.76548         0.009054     -0.015714      0.011307
      9.74617      4.22551      9.74621        -0.004461     -0.016498     -0.004438
      4.19244      6.76575      6.76582        -0.015600      0.010392      0.010400
      4.02749      9.55481      4.02747         0.009534      0.021705      0.009871
      9.54742      1.48720      1.48724        -0.011567      0.000223     -0.000073
      9.58974      7.00852      7.00853         0.005781     -0.003721     -0.003613
      4.23895      1.26952      1.26957        -0.012281      0.005898      0.005653
      9.74617      9.74615      4.22562        -0.004507     -0.004404     -0.017017
      4.02747      4.02746      9.55473         0.010152      0.010026      0.022125
 -----------------------------------------------------------------------------------
    total drift:                                0.000543      0.000403      0.000440


--------------------------------------------------------------------------------------------------------



  FREE ENERGIE OF THE ION-ELECTRON SYSTEM (eV)
  ---------------------------------------------------
  free  energy   TOTEN  =      -205.86508802 eV

  energy  without entropy=     -205.86508802  energy(sigma->0) =     -205.86508802
 


--------------------------------------------------------------------------------------------------------


    POTLOK:  cpu time    0.23: real time    0.46


--------------------------------------------------------------------------------------------------------


 writing wavefunctions
     LOOP+:  cpu time 3070.02: real time 3822.94
    4ORBIT:  cpu time    0.00: real time    0.00
 


 total charge     
 
# of ion     s       p       d       tot
----------------------------------------
  1        0.415   0.291   9.563  10.269
  2        0.414   0.286   9.563  10.264
  3        0.414   0.286   9.563  10.264
  4        0.414   0.286   9.563  10.264
  5        0.415   0.287   9.563  10.265
  6        0.415   0.289   9.563  10.267
  7        0.415   0.287   9.563  10.265
  8        0.415   0.287   9.563  10.265
  9        0.376   0.274   9.590  10.239
 10        0.723   0.597   9.950  11.270
 11        0.723   0.597   9.950  11.270
 12        0.723   0.597   9.950  11.270
 13        0.723   0.597   9.950  11.270
 14        0.723   0.597   9.950  11.270
 15        0.723   0.597   9.950  11.270
 16        0.723   0.601   9.951  11.275
 17        0.723   0.599   9.951  11.273
 18        0.724   0.598   9.950  11.272
 19        0.724   0.598   9.950  11.272
 20        0.723   0.599   9.951  11.273
 21        0.723   0.601   9.951  11.275
 22        0.723   0.599   9.951  11.273
 23        0.724   0.598   9.950  11.272
 24        0.723   0.601   9.951  11.275
 25        1.338   2.384   0.000   3.722
 26        1.339   2.383   0.000   3.722
 27        1.339   2.383   0.000   3.722
 28        1.339   2.383   0.000   3.722
 29        1.339   2.383   0.000   3.723
 30        1.338   2.385   0.000   3.723
 31        1.339   2.383   0.000   3.723
 32        1.339   2.383   0.000   3.723
 33        1.339   2.384   0.000   3.723
 34        1.339   2.384   0.000   3.723
 35        1.339   2.384   0.000   3.723
 36        1.339   2.383   0.000   3.722
 37        1.339   2.383   0.000   3.722
 38        1.339   2.383   0.000   3.722
 39        1.339   2.380   0.000   3.719
 40        1.337   2.387   0.000   3.723
 41        1.339   2.384   0.000   3.722
 42        1.339   2.384   0.000   3.722
 43        1.339   2.381   0.000   3.720
 44        1.336   2.386   0.000   3.723
 45        1.336   2.386   0.000   3.723
 46        1.339   2.384   0.000   3.722
 47        1.339   2.384   0.000   3.722
 48        1.337   2.387   0.000   3.723
 49        1.339   2.380   0.000   3.719
 50        1.337   2.387   0.000   3.723
 51        1.339   2.381   0.000   3.720
 52        1.339   2.384   0.000   3.722
 53        1.336   2.386   0.000   3.723
 54        1.339   2.384   0.000   3.722
 55        1.339   2.380   0.000   3.719
 56        1.339   2.381   0.000   3.720
------------------------------------------------
tot       57.369  87.825 235.349 380.543
 
 BZINTS: Fermi energy:  3.364844;496.000000 electrons
         Band energy:***********;  BLOECHL correction:  0.000000

 total amount of memory used by VASP on root node   494609. kBytes
========================================================================

   base      :      30000. kBytes
   nonl-proj :     310646. kBytes
   fftplans  :       9474. kBytes
   grid      :      41834. kBytes
   one-center:        870. kBytes
   wavefun   :     101785. kBytes
 
  
  
 General timing and accounting informations for this job:
 ========================================================
  
                  Total CPU time used (sec):     3165.054
                            User time (sec):     3136.272
                          System time (sec):       28.782
                         Elapsed time (sec):     8005.272
  
                   Maximum memory used (kb):      579080.
                   Average memory used (kb):           0.
  
                          Minor page faults:       173264
                          Major page faults:            0
                 Voluntary context switches:      3547103
