 vasp.5.3.5 31Mar14 (build Feb 04 2015 11:56:40) complex                        
  
 executed on             LinuxIFC date 2016.03.23  19:36:51
 running on    8 total cores
 distrk:  each k-point on    8 cores,    1 groups
 distr:  one band on NCORES_PER_BAND=   2 cores,    4 groups


--------------------------------------------------------------------------------------------------------


 INCAR:
 POTCAR:    PAW_PBE Cd 06Sep2000                  
 POTCAR:    PAW_PBE In_d 06Sep2000                
 POTCAR:    PAW_PBE S 06Sep2000                   
 POTCAR:    PAW_PBE Cd 06Sep2000                  
   VRHFIN =Cd : s2 d10                                                          
   LEXCH  = PE                                                                  
   EATOM  =  1293.1815 eV,   95.0462 Ry                                         
                                                                                
   TITEL  = PAW_PBE Cd 06Sep2000                                                
   LULTRA =        F    use ultrasoft PP ?                                      
   IUNSCR =        1    unscreen: 0-lin 1-nonlin 2-no                           
   RPACOR =    2.000    partial core radius                                     
   POMASS =  112.411; ZVAL   =   12.000    mass and valenz                      
   RCORE  =    2.300    outmost cutoff radius                                   
   RWIGS  =    2.980; RWIGS  =    1.577    wigner-seitz radius (au A)           
   ENMAX  =  274.336; ENMIN  =  205.752 eV                                      
   RCLOC  =    2.054    cutoff for local pot                                    
   LCOR   =        T    correct aug charges                                     
   LPAW   =        T    paw PP                                                  
   EAUG   =  456.106                                                            
   DEXC   =    0.000                                                            
   RMAX   =    2.358    core radius for proj-oper                               
   RAUG   =    1.300    factor for augmentation sphere                          
   RDEP   =    2.450    radius for radial grids                                 
   RDEPT  =    1.955    core radius for aug-charge                              
                                                                                
   Atomic configuration                                                         
   12 entries                                                                   
     n  l   j            E        occ.                                          
     1  0  0.50    -26519.7817   2.0000                                         
     2  0  0.50     -3936.9612   2.0000                                         
     2  1  1.50     -3532.2230   6.0000                                         
     3  0  0.50      -733.7908   2.0000                                         
     3  1  1.50      -601.0792   6.0000                                         
     3  2  2.50      -393.5307  10.0000                                         
     4  0  0.50      -105.8977   2.0000                                         
     4  1  1.50       -66.9488   6.0000                                         
     4  2  2.50       -11.7331  10.0000                                         
     5  0  0.50        -5.6592   2.0000                                         
     5  1  0.50        -1.3606   0.0000                                         
     4  3  2.50        -1.3606   0.0000                                         
   Description                                                                  
     l       E           TYP  RCUT    TYP  RCUT                                 
     2    -11.7331479     23  2.300                                             
     2    -13.0937305     23  2.300                                             
     0     -5.6591502     23  2.300                                             
     0     -1.5561433     23  2.300                                             
     1     -2.7211652     23  2.300                                             
     1      8.3548275     23  2.300                                             
  local pseudopotential read in
  partial core-charges read in
  partial kinetic energy density read in
  atomic valenz-charges read in
  non local Contribution for L=           2  read in
    real space projection operators read in
  non local Contribution for L=           2  read in
    real space projection operators read in
  non local Contribution for L=           0  read in
    real space projection operators read in
  non local Contribution for L=           0  read in
    real space projection operators read in
  non local Contribution for L=           1  read in
    real space projection operators read in
  non local Contribution for L=           1  read in
    real space projection operators read in
    PAW grid and wavefunctions read in
 
   number of l-projection  operators is LMAX  =           6
   number of lm-projection operators is LMMAX =          18
 
 POTCAR:    PAW_PBE In_d 06Sep2000                
   VRHFIN =In: s2p1                                                             
   LEXCH  = PE                                                                  
   EATOM  =  1576.8302 eV,  115.8937 Ry                                         
                                                                                
   TITEL  = PAW_PBE In_d 06Sep2000                                              
   LULTRA =        F    use ultrasoft PP ?                                      
   IUNSCR =        1    unscreen: 0-lin 1-nonlin 2-no                           
   RPACOR =    2.200    partial core radius                                     
   POMASS =  114.820; ZVAL   =   13.000    mass and valenz                      
   RCORE  =    2.500    outmost cutoff radius                                   
   RWIGS  =    3.170; RWIGS  =    1.677    wigner-seitz radius (au A)           
   ENMAX  =  239.211; ENMIN  =  179.409 eV                                      
   ICORE  =        3    local potential                                         
   LCOR   =        T    correct aug charges                                     
   LPAW   =        T    paw PP                                                  
   EAUG   =  449.704                                                            
   DEXC   =    0.000                                                            
   RMAX   =    2.552    core radius for proj-oper                               
   RAUG   =    1.300    factor for augmentation sphere                          
   RDEP   =    2.630    radius for radial grids                                 
   RDEPT  =    2.033    core radius for aug-charge                              
                                                                                
   Atomic configuration                                                         
   12 entries                                                                   
     n  l   j            E        occ.                                          
     1  0  0.50    -27747.9169   2.0000                                         
     2  0  0.50     -4154.4438   2.0000                                         
     2  1  1.50     -3728.4305   6.0000                                         
     3  0  0.50      -788.3680   2.0000                                         
     3  1  1.50      -648.9215   6.0000                                         
     3  2  2.50      -432.5893  10.0000                                         
     4  0  0.50      -119.6363   2.0000                                         
     4  1  1.50       -78.1086   6.0000                                         
     4  2  2.50       -18.6227  10.0000                                         
     5  0  0.50        -8.2107   2.0000                                         
     5  1  0.50        -2.5185   1.0000                                         
     4  3  2.50        -2.7212   0.0000                                         
   Description                                                                  
     l       E           TYP  RCUT    TYP  RCUT                                 
     2    -18.6226981     23  2.500                                             
     2     -1.3605826     23  2.500                                             
     0     -8.2107305     23  2.500                                             
     0     -6.1485975     23  2.500                                             
     1     -2.5184867     23  2.500                                             
     1      3.2427302     23  2.500                                             
     3     -1.3605826      7  2.500                                             
  local pseudopotential read in
  partial core-charges read in
  partial kinetic energy density read in
  atomic valenz-charges read in
  non local Contribution for L=           2  read in
    real space projection operators read in
  non local Contribution for L=           2  read in
    real space projection operators read in
  non local Contribution for L=           0  read in
    real space projection operators read in
  non local Contribution for L=           0  read in
    real space projection operators read in
  non local Contribution for L=           1  read in
    real space projection operators read in
  non local Contribution for L=           1  read in
    real space projection operators read in
    PAW grid and wavefunctions read in
 
   number of l-projection  operators is LMAX  =           6
   number of lm-projection operators is LMMAX =          18
 
 POTCAR:    PAW_PBE S 06Sep2000                   
   VRHFIN =S : s2p4                                                             
   LEXCH  = PE                                                                  
   EATOM  =   276.8230 eV,   20.3459 Ry                                         
                                                                                
   TITEL  = PAW_PBE S 06Sep2000                                                 
   LULTRA =        F    use ultrasoft PP ?                                      
   IUNSCR =        1    unscreen: 0-lin 1-nonlin 2-no                           
   RPACOR =    1.500    partial core radius                                     
   POMASS =   32.066; ZVAL   =    6.000    mass and valenz                      
   RCORE  =    1.900    outmost cutoff radius                                   
   RWIGS  =    2.200; RWIGS  =    1.164    wigner-seitz radius (au A)           
   ENMAX  =  258.689; ENMIN  =  194.016 eV                                      
   ICORE  =        2    local potential                                         
   LCOR   =        T    correct aug charges                                     
   LPAW   =        T    paw PP                                                  
   EAUG   =  335.092                                                            
   DEXC   =    0.000                                                            
   RMAX   =    1.942    core radius for proj-oper                               
   RAUG   =    1.300    factor for augmentation sphere                          
   RDEP   =    1.954    radius for radial grids                                 
   RDEPT  =    1.744    core radius for aug-charge                              
                                                                                
   Atomic configuration                                                         
    6 entries                                                                   
     n  l   j            E        occ.                                          
     1  0  0.50     -2405.8406   2.0000                                         
     2  0  0.50      -211.7007   2.0000                                         
     2  1  1.50      -156.4958   6.0000                                         
     3  0  0.50       -17.2562   2.0000                                         
     3  1  0.50        -7.0085   4.0000                                         
     3  2  1.50        -6.8029   0.0000                                         
   Description                                                                  
     l       E           TYP  RCUT    TYP  RCUT                                 
     0    -17.2561641     23  1.900                                             
     0    -15.8743224     23  1.900                                             
     1     -7.0085400     23  1.900                                             
     1     -2.7779785     23  1.900                                             
     2     -6.8029130     23  1.900                                             
  local pseudopotential read in
  partial core-charges read in
  partial kinetic energy density read in
  atomic valenz-charges read in
  non local Contribution for L=           0  read in
    real space projection operators read in
  non local Contribution for L=           0  read in
    real space projection operators read in
  non local Contribution for L=           1  read in
    real space projection operators read in
  non local Contribution for L=           1  read in
    real space projection operators read in
    PAW grid and wavefunctions read in
 
   number of l-projection  operators is LMAX  =           4
   number of lm-projection operators is LMMAX =           8
 

 ----------------------------------------------------------------------------- 
|                                                                             |
|  ADVICE TO THIS USER RUNNING 'VASP/VAMP'   (HEAR YOUR MASTER'S VOICE ...):  |
|                                                                             |
|      You have a (more or less) 'large supercell' and for larger cells       |
|      it might be more efficient to use real space projection opertators     |
|      So try LREAL= Auto  in the INCAR   file.                               |
|      Mind: At the moment your POTCAR file does not contain real space       |
|       projectors, and has to be modified,  BUT if you                       |
|      want to do an extremely  accurate calculation you might also keep the  |
|      reciprocal projection scheme          (i.e. LREAL=.FALSE.)             |
|                                                                             |
 ----------------------------------------------------------------------------- 

  PAW_PBE Cd 06Sep2000                  :
 energy of atom  1       EATOM=-1293.1815
 kinetic energy error for atom=    0.0041 (will be added to EATOM!!)
  PAW_PBE In_d 06Sep2000                :
 energy of atom  2       EATOM=-1576.8302
 kinetic energy error for atom=    0.0011 (will be added to EATOM!!)
  PAW_PBE S 06Sep2000                   :
 energy of atom  3       EATOM= -276.8230
 kinetic energy error for atom=    0.0009 (will be added to EATOM!!)
 
 
 POSCAR: Cd In2 S4                               
  positions in direct lattice
  velocities in cartesian coordinates
 exchange correlation table for  LEXCH =        8
   RHO(1)=    0.500       N(1)  =     2000
   RHO(2)=  100.500       N(2)  =     4000
 


--------------------------------------------------------------------------------------------------------


 ion  position               nearest neighbor table
   1  0.002  0.002  0.004-  52 2.57  46 2.57  30 2.57  42 2.63
   2  0.002  0.504  0.502-  53 2.57  29 2.57  43 2.57  34 2.63
   3  0.541  0.541  0.041-  31 2.47  35 2.47  45 2.47
   4  0.504  0.002  0.502-  44 2.57  33 2.57  51 2.57  32 2.63
   5  0.743  0.244  0.744-  38 2.55  26 2.57  48 2.57  49 2.58
   6  0.244  0.244  0.243-  47 2.55  41 2.57  54 2.57  25 2.58
   7  0.244  0.743  0.744-  27 2.55  36 2.57  50 2.57  39 2.58
   8  0.753  0.753  0.253-  55 2.54  40 2.58  28 2.58  37 2.58
   9  0.625  0.625  0.619-  40 2.62  44 2.64  53 2.64  50 2.66  48 2.66  45 2.69  22 3.86  20 3.86
                            19 3.91  18 3.94  23 3.94  17 3.95
  10  0.375  0.875  0.130-  35 2.63  46 2.64  51 2.64  37 2.65  54 2.66  39 2.70  14 3.71  20 3.82
                            16 3.86  15 3.86  21 3.94  23 3.97
  11  0.876  0.125  0.376-  55 2.64  38 2.65  47 2.65  43 2.65  33 2.65  52 2.65  22 3.86  13 3.86
                            24 3.89  19 3.89  15 3.89  16 3.90
  12  0.093  0.373  0.873-  49 2.50  42 2.61  34 2.61  36 2.62  41 2.62  13 3.71  18 3.71  24 3.87
                            21 3.95
  13  0.875  0.375  0.130-  31 2.63  52 2.64  43 2.64  28 2.65  41 2.66  49 2.70  12 3.71  22 3.82
                            21 3.86  11 3.86  16 3.94  18 3.98
  14  0.373  0.093  0.873-  39 2.50  42 2.61  32 2.61  26 2.62  54 2.62  23 3.71  10 3.71  24 3.87
                            16 3.95
  15  0.126  0.876  0.376-  55 2.64  47 2.65  27 2.65  51 2.65  46 2.65  29 2.65  10 3.86  20 3.86
                            24 3.89  11 3.89  19 3.89  21 3.90
  16  0.625  0.119  0.125-  37 2.62  33 2.64  52 2.64  54 2.66  26 2.66  31 2.69  23 3.85  10 3.86
                            11 3.90  13 3.94  22 3.94  14 3.95
  17  0.373  0.373  0.593-  25 2.50  34 2.61  32 2.61  50 2.62  48 2.62  20 3.71  22 3.71  24 3.87
                             9 3.95
  18  0.875  0.630  0.875-  45 2.63  53 2.64  30 2.64  28 2.65  36 2.66  49 2.70  12 3.71  23 3.82
                            21 3.86  19 3.86   9 3.94  13 3.98
  19  0.876  0.876  0.625-  55 2.64  38 2.65  27 2.65  30 2.65  44 2.65  53 2.65  18 3.86  23 3.86
                            24 3.89  11 3.89  15 3.89   9 3.91
  20  0.375  0.629  0.375-  35 2.63  29 2.64  51 2.64  40 2.65  50 2.66  25 2.70  17 3.71  10 3.82
                             9 3.86  15 3.86  21 3.94  22 3.97
  21  0.119  0.625  0.125-  28 2.62  46 2.64  29 2.64  36 2.66  41 2.66  35 2.69  18 3.86  13 3.86
                            15 3.90  20 3.94  10 3.94  12 3.95
  22  0.630  0.375  0.375-  31 2.63  33 2.64  43 2.64  40 2.65  48 2.66  25 2.70  17 3.71  13 3.82
                             9 3.86  11 3.86  16 3.94  20 3.97
  23  0.630  0.875  0.875-  45 2.63  30 2.64  44 2.64  37 2.65  26 2.66  39 2.70  14 3.71  18 3.82
                            16 3.85  19 3.86   9 3.94  10 3.97
  24  0.125  0.125  0.625-  27 2.64  38 2.64  47 2.64  32 2.68  42 2.68  34 2.68  14 3.87  12 3.87
                            17 3.87  15 3.89  11 3.89  19 3.89
  25  0.385  0.385  0.367-  17 2.50   6 2.58  20 2.70  22 2.70
  26  0.609  0.115  0.885-   5 2.57  14 2.62  23 2.66  16 2.66
  27  0.116  0.886  0.616-   7 2.55  24 2.64  15 2.65  19 2.65
  28  0.882  0.615  0.115-   8 2.58  21 2.62  18 2.65  13 2.65
  29  0.136  0.636  0.364-   2 2.57  20 2.64  21 2.64  15 2.65
  30  0.869  0.869  0.866-   1 2.57  23 2.64  18 2.64  19 2.65
  31  0.637  0.362  0.137-   3 2.47  13 2.63  22 2.63  16 2.69
  32  0.368  0.141  0.641-  17 2.61  14 2.61   4 2.63  24 2.68
  33  0.636  0.136  0.364-   4 2.57  22 2.64  16 2.64  11 2.65
  34  0.141  0.368  0.641-  17 2.61  12 2.61   2 2.63  24 2.68
  35  0.362  0.637  0.137-   3 2.47  20 2.63  10 2.63  21 2.69
  36  0.115  0.609  0.885-   7 2.57  12 2.62  18 2.66  21 2.66
  37  0.615  0.882  0.115-   8 2.58  16 2.62  23 2.65  10 2.65
  38  0.886  0.116  0.616-   5 2.55  24 2.64  11 2.65  19 2.65
  39  0.385  0.867  0.885-  14 2.50   7 2.58  10 2.70  23 2.70
  40  0.615  0.615  0.382-   8 2.58   9 2.62  22 2.65  20 2.65
  41  0.115  0.385  0.109-   6 2.57  12 2.62  13 2.66  21 2.66
  42  0.141  0.141  0.868-  12 2.61  14 2.61   1 2.63  24 2.68
  43  0.869  0.366  0.369-   2 2.57  22 2.64  13 2.64  11 2.65
  44  0.636  0.864  0.636-   4 2.57  23 2.64   9 2.64  19 2.65
  45  0.637  0.637  0.862-   3 2.47  23 2.63  18 2.63   9 2.69
  46  0.136  0.864  0.136-   1 2.57  10 2.64  21 2.64  15 2.65
  47  0.116  0.116  0.386-   6 2.55  24 2.64  11 2.65  15 2.65
  48  0.609  0.385  0.615-   5 2.57  17 2.62  22 2.66   9 2.66
  49  0.867  0.385  0.885-  12 2.50   5 2.58  13 2.70  18 2.70
  50  0.385  0.609  0.615-   7 2.57  17 2.62   9 2.66  20 2.66
  51  0.366  0.869  0.369-   4 2.57  10 2.64  20 2.64  15 2.65
  52  0.864  0.136  0.136-   1 2.57  13 2.64  16 2.64  11 2.65
  53  0.864  0.636  0.636-   2 2.57  18 2.64   9 2.64  19 2.65
  54  0.385  0.115  0.109-   6 2.57  14 2.62  10 2.66  16 2.66
  55  0.886  0.886  0.386-   8 2.54  19 2.64  15 2.64  11 2.64
 

IMPORTANT INFORMATION: All symmetrisations will be switched off!
NOSYMM: (Re-)initialisation of all symmetry stuff for point group C_1.

 
 
 KPOINTS: Automatic mesh                          

Automatic generation of k-mesh.
Space group operators:
 irot       det(A)        alpha          n_x          n_y          n_z        tau_x        tau_y        tau_z
    1     1.000000     0.000001     1.000000     0.000000     0.000000     0.000000     0.000000     0.000000
 
 Subroutine IBZKPT returns following result:
 ===========================================
 
 Found     14 irreducible k-points:
 
 Following reciprocal coordinates:
            Coordinates               Weight
  0.000000  0.000000  0.000000      1.000000
  0.333333  0.000000  0.000000      2.000000
  0.000000  0.333333  0.000000      2.000000
  0.333333  0.333333  0.000000      2.000000
 -0.333333  0.333333  0.000000      2.000000
  0.000000  0.000000  0.333333      2.000000
  0.333333  0.000000  0.333333      2.000000
 -0.333333  0.000000  0.333333      2.000000
  0.000000  0.333333  0.333333      2.000000
  0.333333  0.333333  0.333333      2.000000
 -0.333333  0.333333  0.333333      2.000000
  0.000000 -0.333333  0.333333      2.000000
  0.333333 -0.333333  0.333333      2.000000
 -0.333333 -0.333333  0.333333      2.000000
 
 Following cartesian coordinates:
            Coordinates               Weight
  0.000000  0.000000  0.000000      1.000000
  0.030242  0.000000  0.000000      2.000000
  0.000000  0.030242  0.000000      2.000000
  0.030242  0.030242  0.000000      2.000000
 -0.030242  0.030242  0.000000      2.000000
  0.000000  0.000000  0.030242      2.000000
  0.030242  0.000000  0.030242      2.000000
 -0.030242  0.000000  0.030242      2.000000
  0.000000  0.030242  0.030242      2.000000
  0.030242  0.030242  0.030242      2.000000
 -0.030242  0.030242  0.030242      2.000000
  0.000000 -0.030242  0.030242      2.000000
  0.030242 -0.030242  0.030242      2.000000
 -0.030242 -0.030242  0.030242      2.000000
 
 TETIRR: Found     78 inequivalent tetrahedra from      162


--------------------------------------------------------------------------------------------------------




 Dimension of arrays:
   k-points           NKPTS =     14   k-points in BZ     NKDIM =     14   number of bands    NBANDS=    292
   number of dos      NEDOS =   1601   number of ions     NIONS =     55
   non local maximal  LDIM  =      6   non local SUM 2l+1 LMDIM =     18
   total plane-waves  NPLWV = 729000
   max r-space proj   IRMAX =      1   max aug-charges    IRDMAX=  23711
   dimension x,y,z NGX =    90 NGY =   90 NGZ =   90
   dimension x,y,z NGXF=   180 NGYF=  180 NGZF=  180
   support grid    NGXF=   180 NGYF=  180 NGZF=  180
   ions per type =               8  16  31
 NGX,Y,Z   is equivalent  to a cutoff of  13.57, 13.57, 13.57 a.u.
 NGXF,Y,Z  is equivalent  to a cutoff of  27.15, 27.15, 27.15 a.u.


 I would recommend the setting:
   dimension x,y,z NGX =    88 NGY =   88 NGZ =   88
 SYSTEM =  CdIn2S4                                 
 POSCAR =  Cd In2 S4                               

 Startparameter for this run:
   NWRITE =      2    write-flag & timer
   PREC   = accura    normal or accurate (medium, high low for compatibility)
   ISTART =      0    job   : 0-new  1-cont  2-samecut
   ICHARG =      2    charge: 1-file 2-atom 10-const
   ISPIN  =      1    spin polarized calculation?
   LNONCOLLINEAR =      F non collinear calculations
   LSORBIT =      F    spin-orbit coupling
   INIWAV =      1    electr: 0-lowe 1-rand  2-diag
   LASPH  =      F    aspherical Exc in radial PAW
   METAGGA=      F    non-selfconsistent MetaGGA calc.

 Electronic Relaxation 1
   ENCUT  =  600.0 eV  44.10 Ry    6.64 a.u.  22.01 22.01 22.01*2*pi/ulx,y,z
   ENINI  =  600.0     initial cutoff
   ENAUG  =  456.1 eV  augmentation charge cutoff
   NELM   =     60;   NELMIN=  2; NELMDL= -5     # of ELM steps 
   EDIFF  = 0.1E-04   stopping-criterion for ELM
   LREAL  =      F    real-space projection
   NLSPLINE    = F    spline interpolate recip. space projectors
   LCOMPAT=      F    compatible to vasp.4.4
   GGA_COMPAT  = T    GGA compatible to vasp.4.4-vasp.4.6
   LMAXPAW     = -100 max onsite density
   LMAXMIX     =    2 max onsite mixed and CHGCAR
   VOSKOWN=      0    Vosko Wilk Nusair interpolation
   ROPT   =    0.00000   0.00000   0.00000
 Ionic relaxation
   EDIFFG = -.1E-02   stopping-criterion for IOM
   NSW    =      0    number of steps for IOM
   NBLOCK =      1;   KBLOCK =      1    inner block; outer block 
   IBRION =     -1    ionic relax: 0-MD 1-quasi-New 2-CG
   NFREE  =      1    steps in history (QN), initial steepest desc. (CG)
   ISIF   =      0    stress and relaxation
   IWAVPR =     10    prediction:  0-non 1-charg 2-wave 3-comb
   ISYM   =      0    0-nonsym 1-usesym 2-fastsym
   LCORR  =      T    Harris-Foulkes like correction to forces

   POTIM  = 0.5000    time-step for ionic-motion
   TEIN   =    0.0    initial temperature
   TEBEG  =    0.0;   TEEND  =   0.0 temperature during run
   SMASS  =  -3.00    Nose mass-parameter (am)
   estimated Nose-frequenzy (Omega)   =  0.10E-29 period in steps =****** mass=  -0.278E-26a.u.
   SCALEE = 1.0000    scale energy and forces
   NPACO  =    256;   APACO  = 16.0  distance and # of slots for P.C.
   PSTRESS=    0.0 pullay stress

  Mass of Ions in am
   POMASS = 112.41114.82 32.07
  Ionic Valenz
   ZVAL   =  12.00 13.00  6.00
  Atomic Wigner-Seitz radii
   RWIGS  =  -1.00 -1.00 -1.00
  virtual crystal weights 
   VCA    =   1.00  1.00  1.00
   NELECT =     488.0000    total number of electrons
   NUPDOWN=      -1.0000    fix difference up-down

 DOS related values:
   EMIN   =  -5.00;   EMAX   = 10.00  energy-range for DOS
   EFERMI =   0.00
   ISMEAR =    -4;   SIGMA  =   0.20  broadening in eV -4-tet -1-fermi 0-gaus

 Electronic relaxation 2 (details)
   IALGO  =     38    algorithm
   LDIAG  =      T    sub-space diagonalisation (order eigenvalues)
   LSUBROT=      F    optimize rotation matrix (better conditioning)
   TURBO    =      0    0=normal 1=particle mesh
   IRESTART =      0    0=no restart 2=restart with 2 vectors
   NREBOOT  =      0    no. of reboots
   NMIN     =      0    reboot dimension
   EREF     =   0.00    reference energy to select bands
   IMIX   =      4    mixing-type and parameters
     AMIX     =   0.40;   BMIX     =  1.00
     AMIX_MAG =   1.60;   BMIX_MAG =  1.00
     AMIN     =   0.10
     WC   =   100.;   INIMIX=   1;  MIXPRE=   1;  MAXMIX= -45

 Intra band minimization:
   WEIMIN = 0.0000     energy-eigenvalue tresh-hold
   EBREAK =  0.86E-08  absolut break condition
   DEPER  =   0.30     relativ break condition  

   TIME   =   0.40     timestep for ELM

  volume/ion in A,a.u.               =      24.35       164.31
  Fermi-wavevector in a.u.,A,eV,Ry     =   1.169339  2.209730 18.603976  1.367354
  Thomas-Fermi vector in A             =   2.305813
 
 Write flags
   LWAVE  =      T    write WAVECAR
   LCHARG =      T    write CHGCAR
   LVTOT  =      F    write LOCPOT, total local potential
   LVHAR  =      F    write LOCPOT, Hartree potential only
   LELF   =      F    write electronic localiz. function (ELF)
   LORBIT =     11    0 simple, 1 ext, 2 COOP (PROOUT)


 Dipole corrections
   LMONO  =      F    monopole corrections only (constant potential shift)
   LDIPOL =      F    correct potential (dipole corrections)
   IDIPOL =      0    1-x, 2-y, 3-z, 4-all directions 
   EPSILON=  1.0000000 bulk dielectric constant

 Exchange correlation treatment:
   GGA     =    --    GGA type
   LEXCH   =     8    internal setting for exchange type
   VOSKOWN=      0    Vosko Wilk Nusair interpolation
   LHFCALC =     F    Hartree Fock is set to
   LHFONE  =     F    Hartree Fock one center treatment
   AEXX    =    0.0000 exact exchange contribution

 Linear response parameters
   LEPSILON=     F    determine dielectric tensor
   LRPA    =     F    only Hartree local field effects (RPA)
   LNABLA  =     F    use nabla operator in PAW spheres
   LVEL    =     F    velocity operator in full k-point grid
   LINTERFAST=   F  fast interpolation
   KINTER  =     0    interpolate to denser k-point grid
   CSHIFT  =0.1000    complex shift for real part using Kramers Kronig
   OMEGAMAX=  -1.0    maximum frequency
   DEG_THRESHOLD= 0.2000000E-02 threshold for treating states as degnerate
   RTIME   =    0.100 relaxation time in fs

 Orbital magnetization related:
   ORBITALMAG=     F  switch on orbital magnetization
   LCHIMAG   =     F  perturbation theory with respect to B field
   DQ        =  0.001000  dq finite difference perturbation B field



--------------------------------------------------------------------------------------------------------


 Static calculation
 charge density and potential will be updated during run
 non-spin polarized calculation
 Variant of blocked Davidson
 Davidson routine will perform the subspace rotation
 perform sub-space diagonalisation
    after iterative eigenvector-optimisation
 modified Broyden-mixing scheme, WC =      100.0
 initial mixing is a Kerker type mixing with AMIX =  0.4000 and BMIX =      1.0000
 Hartree-type preconditioning will be used
 using additional bands           48
 reciprocal scheme for non local part
 use partial core corrections
 calculate Harris-corrections to forces 
   (improved forces if not selfconsistent)
 use gradient corrections 
 use of overlap-Matrix (Vanderbilt PP)
 Fermi weights with tetrahedron method witout Bloechl corrections


--------------------------------------------------------------------------------------------------------


  energy-cutoff  :      600.00
  volume of cell :     1339.13
      direct lattice vectors                 reciprocal lattice vectors
    11.022353692  0.000000000  0.000000000     0.090724724  0.000000000  0.000000000
     0.000000000 11.022353692  0.000000000     0.000000000  0.090724724  0.000000000
     0.000000000  0.000000000 11.022353692     0.000000000  0.000000000  0.090724724

  length of vectors
    11.022353692 11.022353692 11.022353692     0.090724724  0.090724724  0.090724724


 
 k-points in units of 2pi/SCALE and weight: Automatic mesh                          
   0.00000000  0.00000000  0.00000000       0.037
   0.03024157  0.00000000  0.00000000       0.074
   0.00000000  0.03024157  0.00000000       0.074
   0.03024157  0.03024157  0.00000000       0.074
  -0.03024157  0.03024157  0.00000000       0.074
   0.00000000  0.00000000  0.03024157       0.074
   0.03024157  0.00000000  0.03024157       0.074
  -0.03024157  0.00000000  0.03024157       0.074
   0.00000000  0.03024157  0.03024157       0.074
   0.03024157  0.03024157  0.03024157       0.074
  -0.03024157  0.03024157  0.03024157       0.074
   0.00000000 -0.03024157  0.03024157       0.074
   0.03024157 -0.03024157  0.03024157       0.074
  -0.03024157 -0.03024157  0.03024157       0.074
 
 k-points in reciprocal lattice and weights: Automatic mesh                          
   0.00000000  0.00000000  0.00000000       0.037
   0.33333333  0.00000000  0.00000000       0.074
   0.00000000  0.33333333  0.00000000       0.074
   0.33333333  0.33333333  0.00000000       0.074
  -0.33333333  0.33333333  0.00000000       0.074
   0.00000000  0.00000000  0.33333333       0.074
   0.33333333  0.00000000  0.33333333       0.074
  -0.33333333  0.00000000  0.33333333       0.074
   0.00000000  0.33333333  0.33333333       0.074
   0.33333333  0.33333333  0.33333333       0.074
  -0.33333333  0.33333333  0.33333333       0.074
   0.00000000 -0.33333333  0.33333333       0.074
   0.33333333 -0.33333333  0.33333333       0.074
  -0.33333333 -0.33333333  0.33333333       0.074
 
 position of ions in fractional coordinates (direct lattice) 
   0.00242492  0.00242241  0.00361599
   0.00229356  0.50358612  0.50240992
   0.54130467  0.54128686  0.04127542
   0.50352319  0.00226741  0.50234528
   0.74301808  0.24449562  0.74447136
   0.24445359  0.24448918  0.24294708
   0.24447844  0.74301861  0.74449960
   0.75334967  0.75319197  0.25346172
   0.62532644  0.62541873  0.61904934
   0.37474904  0.87498500  0.12980320
   0.87588752  0.12548758  0.37590298
   0.09268870  0.37263491  0.87262444
   0.87490097  0.37463102  0.12967592
   0.37262309  0.09263445  0.87255751
   0.12552939  0.87590735  0.37590204
   0.62543168  0.11897928  0.12546162
   0.37254780  0.37273655  0.59260836
   0.87489637  0.62976395  0.87469056
   0.87586174  0.87588786  0.62548260
   0.37462332  0.62942606  0.37465042
   0.11893504  0.62546226  0.12544411
   0.62982318  0.37474564  0.37495659
   0.62986228  0.87502802  0.87491208
   0.12541192  0.12541634  0.62541149
   0.38530106  0.38504727  0.36659322
   0.60889734  0.11491738  0.88477432
   0.11602390  0.88623915  0.61604509
   0.88157756  0.61468300  0.11468620
   0.13561467  0.63560101  0.36440069
   0.86904314  0.86903603  0.86590262
   0.63683301  0.36243009  0.13683600
   0.36750337  0.14124741  0.64107786
   0.63560009  0.13564493  0.36440331
   0.14111419  0.36753475  0.64113972
   0.36243045  0.63687744  0.13675989
   0.11488137  0.60889823  0.88477880
   0.61474287  0.88160328  0.11482544
   0.88623283  0.11603938  0.61602887
   0.38528701  0.86672392  0.88528697
   0.61466413  0.61465710  0.38160393
   0.11488314  0.38478873  0.10889020
   0.14113976  0.14115961  0.86752044
   0.86905227  0.36587915  0.36900770
   0.63560448  0.86440276  0.63565767
   0.63680798  0.63697418  0.86246237
   0.13564029  0.86440718  0.13560249
   0.11602012  0.11603769  0.38622745
   0.60885935  0.38477603  0.61490542
   0.86671643  0.38527252  0.88520029
   0.38472762  0.60894001  0.61479355
   0.36597739  0.86886557  0.36901347
   0.86440548  0.13562958  0.13559781
   0.86439266  0.63559612  0.63564927
   0.38475098  0.11490459  0.10885891
   0.88617808  0.88613036  0.38615805
 
 position of ions in cartesian coordinates  (Angst):
   0.02672836  0.02670067  0.03985667
   0.02528042  5.55070433  5.53773982
   5.96645152  5.96625518  0.45495231
   5.55001070  0.02499221  5.53702740
   8.18980804  2.69491718  8.20582662
   2.69445394  2.69484624  2.67784866
   2.69472783  8.18981389  8.20613794
   8.30368657  8.30194830  2.79374468
   6.89256917  6.89358649  6.82338083
   4.13061650  9.64439410  1.43073677
   9.65434209  1.38316844  4.14333556
   1.02164768  4.10731374  9.61837517
   9.64346791  4.12931557  1.42933390
   4.10718347  1.02104972  9.61763751
   1.38362937  9.65456056  4.14332521
   6.89372914  1.31143172  1.38288239
   4.10635362  4.10843412  6.53193897
   9.64341726  6.94148099  9.64114871
   9.65405793  9.65434575  6.89429039
   4.12923071  6.93775671  4.12952946
   1.31094413  6.89406630  1.38268935
   6.94213385  4.13057904  4.13290412
   6.94256488  9.64486828  9.64359045
   1.38233455  1.38238331  6.89350661
   4.24692453  4.24412714  4.04072019
   6.71148182  1.26665999  9.75229553
   1.27885641  9.76844132  6.79026690
   9.71705969  6.77525347  1.26411186
   1.49479285  7.00581916  4.01655327
   9.57890089  9.57882250  9.54428491
   7.01939870  3.99483263  1.50825478
   4.05075211  1.55687894  7.06618696
   7.00580897  1.49512643  4.01658221
   1.55541047  4.05109803  7.06686879
   3.99483656  7.01988838  1.50741587
   1.26626314  6.71149168  9.75234492
   6.77591337  9.71734321  1.26564658
   9.76837169  1.27902708  6.79008812
   4.24676971  9.55333755  9.75794608
   6.77504547  6.77496795  4.20617347
   1.26628263  4.24127745  1.20022625
   1.55569231  1.55591119  9.56211712
   9.57900148  4.03284939  4.06733338
   7.00585735  9.52775297  7.00644369
   7.01912280  7.02095474  9.50636533
   1.49507530  9.52780164  1.49465860
   1.27881482  1.27900843  4.25713552
   6.71106310  4.24113748  6.77770506
   9.55325502  4.24660995  9.75699064
   4.24060386  6.71195216  6.77647195
   4.03393223  9.57694367  4.06739703
   9.52778291  1.49495725  1.49460705
   9.52764165  7.00576523  7.00635106
   4.24086141  1.26651907  1.19988141
   9.76776828  9.76724228  4.25637062
 


--------------------------------------------------------------------------------------------------------


 k-point  1 :   0.0000 0.0000 0.0000  plane waves:   44473
 k-point  2 :   0.3333 0.0000 0.0000  plane waves:   44660
 k-point  3 :   0.0000 0.3333 0.0000  plane waves:   44660
 k-point  4 :   0.3333 0.3333 0.0000  plane waves:   44717
 k-point  5 :  -0.3333 0.3333 0.0000  plane waves:   44717
 k-point  6 :   0.0000 0.0000 0.3333  plane waves:   44660
 k-point  7 :   0.3333 0.0000 0.3333  plane waves:   44717
 k-point  8 :  -0.3333 0.0000 0.3333  plane waves:   44717
 k-point  9 :   0.0000 0.3333 0.3333  plane waves:   44717
 k-point 10 :   0.3333 0.3333 0.3333  plane waves:   44681
 k-point 11 :  -0.3333 0.3333 0.3333  plane waves:   44681
 k-point 12 :   0.0000-0.3333 0.3333  plane waves:   44717
 k-point 13 :   0.3333-0.3333 0.3333  plane waves:   44681
 k-point 14 :  -0.3333-0.3333 0.3333  plane waves:   44681

 maximum and minimum number of plane-waves per node :     22426    22216

 maximum number of plane-waves:     44717
 maximum index in each direction: 
   IXMAX=   22   IYMAX=   22   IZMAX=   22
   IXMIN=  -22   IYMIN=  -22   IZMIN=  -22

 NGX is ok and might be reduce to  90
 NGY is ok and might be reduce to  90
 NGZ is ok and might be reduce to  90

 parallel 3D FFT for wavefunctions:
    minimum data exchange during FFTs selected (reduces bandwidth)
 parallel 3D FFT for charge:
    minimum data exchange during FFTs selected (reduces bandwidth)


 total amount of memory used by VASP on root node   655573. kBytes
========================================================================

   base      :      30000. kBytes
   nonl-proj :     154993. kBytes
   fftplans  :      35958. kBytes
   grid      :      62735. kBytes
   one-center:        435. kBytes
   wavefun   :     371452. kBytes
 
     INWAV:  cpu time    0.00: real time    0.00
 Broyden mixing: mesh for mixing (old mesh)
   NGX = 45   NGY = 45   NGZ = 45
  (NGX  =180   NGY  =180   NGZ  =180)
  gives a total of  91125 points

 initial charge density was supplied:
 charge density of overlapping atoms calculated
 number of electron     490.0000000 magnetization 
 keeping initial charge density in first step


--------------------------------------------------------------------------------------------------------


 Maximum index for augmentation-charges         3308 (set IRDMAX)


--------------------------------------------------------------------------------------------------------


 First call to EWALD:  gamma=   0.161
 Maximum number of real-space cells 3x 3x 3
 Maximum number of reciprocal cells 3x 3x 3

 FEWALD executed in parallel
    FEWALD:  cpu time    0.01: real time    0.01


----------------------------------------- Iteration    1(   1)  ---------------------------------------


    POTLOK:  cpu time    1.62: real time    1.63
    SETDIJ:  cpu time    0.07: real time    0.07
     EDDAV:  cpu time 1060.85: real time 1068.30
 BZINTS: Fermi energy: 32.544049;488.000000 electrons
         Band energy:4315.359119;  BLOECHL correction:  0.000000
       DOS:  cpu time    4.85: real time    4.85
    --------------------------------------------
      LOOP:  cpu time 1067.40: real time 1074.85

 eigenvalue-minimisations  :  8176
 total energy-change (2. order) : 0.6324338E+04  (-0.2208290E+05)
 number of electron     490.0000000 magnetization 
 augmentation part      490.0000000 magnetization 

 Free energy of the ion-electron system (eV)
  ---------------------------------------------------
  alpha Z        PSCENC =      1241.77088299
  Ewald energy   TEWEN  =    -31088.60909038
  -Hartree energ DENC   =    -13909.68097559
  -exchange      EXHF   =         0.00000000
  -V(xc)+E(xc)   XCENC  =      1091.26318285
  PAW double counting   =     38410.54010082   -37892.47695797
  entropy T*S    EENTRO =         0.00000000
  eigenvalues    EBANDS =      4315.35911929
  atomic energy  EATOM  =     44156.17162135
  ---------------------------------------------------
  free energy    TOTEN  =      6324.33788336 eV

  energy without entropy =     6324.33788336  energy(sigma->0) =     6324.33788336


--------------------------------------------------------------------------------------------------------




----------------------------------------- Iteration    1(   2)  ---------------------------------------


     EDDAV:  cpu time 1242.89: real time 1246.31
 BZINTS: Fermi energy: 12.315581;488.000000 electrons
         Band energy:-928.086685;  BLOECHL correction:  0.000000
       DOS:  cpu time    0.58: real time    0.57
    --------------------------------------------
      LOOP:  cpu time 1243.53: real time 1246.97

 eigenvalue-minimisations  :  8176
 total energy-change (2. order) :-0.5243446E+04  (-0.5109715E+04)
 number of electron     490.0000000 magnetization 
 augmentation part      490.0000000 magnetization 

 Free energy of the ion-electron system (eV)
  ---------------------------------------------------
  alpha Z        PSCENC =      1241.77088299
  Ewald energy   TEWEN  =    -31088.60909038
  -Hartree energ DENC   =    -13909.68097559
  -exchange      EXHF   =         0.00000000
  -V(xc)+E(xc)   XCENC  =      1091.26318285
  PAW double counting   =     38410.54010082   -37892.47695797
  entropy T*S    EENTRO =         0.00000000
  eigenvalues    EBANDS =      -928.08668524
  atomic energy  EATOM  =     44156.17162135
  ---------------------------------------------------
  free energy    TOTEN  =      1080.89207884 eV

  energy without entropy =     1080.89207884  energy(sigma->0) =     1080.89207884


--------------------------------------------------------------------------------------------------------




----------------------------------------- Iteration    1(   3)  ---------------------------------------


     EDDAV:  cpu time 1364.01: real time 1368.38
 BZINTS: Fermi energy:  4.422021;488.000000 electrons
         Band energy:***********;  BLOECHL correction:  0.000000
       DOS:  cpu time    0.03: real time    0.03
    --------------------------------------------
      LOOP:  cpu time 1364.04: real time 1368.43

 eigenvalue-minimisations  :  9016
 total energy-change (2. order) :-0.1157272E+04  (-0.1082749E+04)
 number of electron     490.0000000 magnetization 
 augmentation part      490.0000000 magnetization 

 Free energy of the ion-electron system (eV)
  ---------------------------------------------------
  alpha Z        PSCENC =      1241.77088299
  Ewald energy   TEWEN  =    -31088.60909038
  -Hartree energ DENC   =    -13909.68097559
  -exchange      EXHF   =         0.00000000
  -V(xc)+E(xc)   XCENC  =      1091.26318285
  PAW double counting   =     38410.54010082   -37892.47695797
  entropy T*S    EENTRO =         0.00000000
  eigenvalues    EBANDS =     -2085.35846380
  atomic energy  EATOM  =     44156.17162135
  ---------------------------------------------------
  free energy    TOTEN  =       -76.37969972 eV

  energy without entropy =      -76.37969972  energy(sigma->0) =      -76.37969972


--------------------------------------------------------------------------------------------------------




----------------------------------------- Iteration    1(   4)  ---------------------------------------


     EDDAV:  cpu time 1690.32: real time 1696.76
 BZINTS: Fermi energy:  2.285547;488.000000 electrons
         Band energy:***********;  BLOECHL correction:  0.000000
       DOS:  cpu time    0.02: real time    0.02
    --------------------------------------------
      LOOP:  cpu time 1690.39: real time 1696.85

 eigenvalue-minimisations  : 10648
 total energy-change (2. order) :-0.1474716E+03  (-0.1445143E+03)
 number of electron     490.0000000 magnetization 
 augmentation part      490.0000000 magnetization 

 Free energy of the ion-electron system (eV)
  ---------------------------------------------------
  alpha Z        PSCENC =      1241.77088299
  Ewald energy   TEWEN  =    -31088.60909038
  -Hartree energ DENC   =    -13909.68097559
  -exchange      EXHF   =         0.00000000
  -V(xc)+E(xc)   XCENC  =      1091.26318285
  PAW double counting   =     38410.54010082   -37892.47695797
  entropy T*S    EENTRO =         0.00000000
  eigenvalues    EBANDS =     -2232.83004884
  atomic energy  EATOM  =     44156.17162135
  ---------------------------------------------------
  free energy    TOTEN  =      -223.85128477 eV

  energy without entropy =     -223.85128477  energy(sigma->0) =     -223.85128477


--------------------------------------------------------------------------------------------------------




----------------------------------------- Iteration    1(   5)  ---------------------------------------


     EDDAV:  cpu time 1286.02: real time 1294.70
 BZINTS: Fermi energy:  2.221094;488.000000 electrons
         Band energy:***********;  BLOECHL correction:  0.000000
       DOS:  cpu time    0.02: real time    0.02
    CHARGE:  cpu time   22.75: real time   22.81
    MIXING:  cpu time    0.07: real time    0.07
    --------------------------------------------
      LOOP:  cpu time 1308.86: real time 1317.61

 eigenvalue-minimisations  :  9880
 total energy-change (2. order) :-0.5431755E+01  (-0.5368111E+01)
 number of electron     487.9999994 magnetization 
 augmentation part      133.0088648 magnetization 

 Broyden mixing:
  rms(total) = 0.39380E+01    rms(broyden)= 0.39376E+01
  rms(prec ) = 0.42981E+01
  weight for this iteration     100.00

 Free energy of the ion-electron system (eV)
  ---------------------------------------------------
  alpha Z        PSCENC =      1241.77088299
  Ewald energy   TEWEN  =    -31088.60909038
  -Hartree energ DENC   =    -13909.68097559
  -exchange      EXHF   =         0.00000000
  -V(xc)+E(xc)   XCENC  =      1091.26318285
  PAW double counting   =     38410.54010082   -37892.47695797
  entropy T*S    EENTRO =         0.00000000
  eigenvalues    EBANDS =     -2238.26180401
  atomic energy  EATOM  =     44156.17162135
  ---------------------------------------------------
  free energy    TOTEN  =      -229.28303993 eV

  energy without entropy =     -229.28303993  energy(sigma->0) =     -229.28303993


--------------------------------------------------------------------------------------------------------




----------------------------------------- Iteration    1(   6)  ---------------------------------------


    POTLOK:  cpu time    1.82: real time    1.82
    SETDIJ:  cpu time    0.10: real time    0.10
     EDDAV:  cpu time 1404.20: real time 1412.33
 BZINTS: Fermi energy:  2.849219;488.000000 electrons
         Band energy:***********;  BLOECHL correction:  0.000000
       DOS:  cpu time    0.02: real time    0.02
    CHARGE:  cpu time   28.68: real time   29.18
    MIXING:  cpu time    0.10: real time    0.11
    --------------------------------------------
      LOOP:  cpu time 1434.92: real time 1443.57

 eigenvalue-minimisations  : 10792
 total energy-change (2. order) : 0.1350163E+02  (-0.2390097E+01)
 number of electron     487.9999994 magnetization 
 augmentation part      134.2298914 magnetization 

 Broyden mixing:
  rms(total) = 0.25276E+01    rms(broyden)= 0.25276E+01
  rms(prec ) = 0.26164E+01
  weight for this iteration     100.00

 eigenvalues of (default mixing * dielectric matrix)
  average eigenvalue GAMMA=   1.7506
  1.7506

 Free energy of the ion-electron system (eV)
  ---------------------------------------------------
  alpha Z        PSCENC =      1241.77088299
  Ewald energy   TEWEN  =    -31088.60909038
  -Hartree energ DENC   =    -13844.72173911
  -exchange      EXHF   =         0.00000000
  -V(xc)+E(xc)   XCENC  =      1089.83661211
  PAW double counting   =     46658.58562817   -46109.77247653
  entropy T*S    EENTRO =         0.00000000
  eigenvalues    EBANDS =     -2319.04285033
  atomic energy  EATOM  =     44156.17162135
  ---------------------------------------------------
  free energy    TOTEN  =      -215.78141173 eV

  energy without entropy =     -215.78141173  energy(sigma->0) =     -215.78141173


--------------------------------------------------------------------------------------------------------




----------------------------------------- Iteration    1(   7)  ---------------------------------------


    POTLOK:  cpu time    2.02: real time    2.01
    SETDIJ:  cpu time    0.15: real time    0.15
     EDDAV:  cpu time 1485.75: real time 1488.76
 BZINTS: Fermi energy:  3.224219;488.000000 electrons
         Band energy:***********;  BLOECHL correction:  0.000000
       DOS:  cpu time    0.02: real time    0.02
    CHARGE:  cpu time   26.45: real time   26.59
    MIXING:  cpu time    0.07: real time    0.07
    --------------------------------------------
      LOOP:  cpu time 1514.45: real time 1517.62

 eigenvalue-minimisations  : 10912
 total energy-change (2. order) : 0.1971378E+00  (-0.2161281E+01)
 number of electron     487.9999995 magnetization 
 augmentation part      135.1569979 magnetization 

 Broyden mixing:
  rms(total) = 0.94406E+00    rms(broyden)= 0.94406E+00
  rms(prec ) = 0.98799E+00
  weight for this iteration     100.00

 eigenvalues of (default mixing * dielectric matrix)
  average eigenvalue GAMMA=   1.6682
  1.2860  2.0504

 Free energy of the ion-electron system (eV)
  ---------------------------------------------------
  alpha Z        PSCENC =      1241.77088299
  Ewald energy   TEWEN  =    -31088.60909038
  -Hartree energ DENC   =    -13852.24798630
  -exchange      EXHF   =         0.00000000
  -V(xc)+E(xc)   XCENC  =      1094.77092787
  PAW double counting   =     55843.07283667   -55284.83911593
  entropy T*S    EENTRO =         0.00000000
  eigenvalues    EBANDS =     -2325.67435023
  atomic energy  EATOM  =     44156.17162135
  ---------------------------------------------------
  free energy    TOTEN  =      -215.58427396 eV

  energy without entropy =     -215.58427396  energy(sigma->0) =     -215.58427396


--------------------------------------------------------------------------------------------------------




----------------------------------------- Iteration    1(   8)  ---------------------------------------


    POTLOK:  cpu time    2.12: real time    2.12
    SETDIJ:  cpu time    0.10: real time    0.10
     EDDAV:  cpu time 1606.84: real time 1623.73
 BZINTS: Fermi energy:  3.102344;488.000000 electrons
         Band energy:***********;  BLOECHL correction:  0.000000
       DOS:  cpu time    0.02: real time    0.02
    CHARGE:  cpu time   28.38: real time   28.81
    MIXING:  cpu time    0.06: real time    0.07
    --------------------------------------------
      LOOP:  cpu time 1637.52: real time 1654.85

 eigenvalue-minimisations  : 10680
 total energy-change (2. order) : 0.1357121E+00  (-0.3657774E+00)
 number of electron     487.9999995 magnetization 
 augmentation part      134.6370771 magnetization 

 Broyden mixing:
  rms(total) = 0.41978E+00    rms(broyden)= 0.41978E+00
  rms(prec ) = 0.43342E+00
  weight for this iteration     100.00

 eigenvalues of (default mixing * dielectric matrix)
  average eigenvalue GAMMA=   1.3917
  2.1771  0.9990  0.9990

 Free energy of the ion-electron system (eV)
  ---------------------------------------------------
  alpha Z        PSCENC =      1241.77088299
  Ewald energy   TEWEN  =    -31088.60909038
  -Hartree energ DENC   =    -13877.56501387
  -exchange      EXHF   =         0.00000000
  -V(xc)+E(xc)   XCENC  =      1095.07966632
  PAW double counting   =     59094.52177107   -58543.37117065
  entropy T*S    EENTRO =         0.00000000
  eigenvalues    EBANDS =     -2293.44722866
  atomic energy  EATOM  =     44156.17162135
  ---------------------------------------------------
  free energy    TOTEN  =      -215.44856182 eV

  energy without entropy =     -215.44856182  energy(sigma->0) =     -215.44856182


--------------------------------------------------------------------------------------------------------




----------------------------------------- Iteration    1(   9)  ---------------------------------------


    POTLOK:  cpu time    1.86: real time    1.86
    SETDIJ:  cpu time    0.09: real time    0.09
     EDDAV:  cpu time 1794.23: real time 1803.02
 BZINTS: Fermi energy:  3.130469;488.000000 electrons
         Band energy:***********;  BLOECHL correction:  0.000000
       DOS:  cpu time    0.02: real time    0.02
    CHARGE:  cpu time   23.77: real time   23.77
    MIXING:  cpu time    0.07: real time    0.07
    --------------------------------------------
      LOOP:  cpu time 1820.04: real time 1828.92

 eigenvalue-minimisations  : 10824
 total energy-change (2. order) : 0.1600680E-01  (-0.2370730E-01)
 number of electron     487.9999995 magnetization 
 augmentation part      134.7175887 magnetization 

 Broyden mixing:
  rms(total) = 0.16189E+00    rms(broyden)= 0.16189E+00
  rms(prec ) = 0.16908E+00
  weight for this iteration     100.00

 eigenvalues of (default mixing * dielectric matrix)
  average eigenvalue GAMMA=   1.4217
  1.8106  1.8106  1.0328  1.0328

 Free energy of the ion-electron system (eV)
  ---------------------------------------------------
  alpha Z        PSCENC =      1241.77088299
  Ewald energy   TEWEN  =    -31088.60909038
  -Hartree energ DENC   =    -13869.53314290
  -exchange      EXHF   =         0.00000000
  -V(xc)+E(xc)   XCENC  =      1095.32067792
  PAW double counting   =     59956.19818613   -59402.60401619
  entropy T*S    EENTRO =         0.00000000
  eigenvalues    EBANDS =     -2304.14767395
  atomic energy  EATOM  =     44156.17162135
  ---------------------------------------------------
  free energy    TOTEN  =      -215.43255502 eV

  energy without entropy =     -215.43255502  energy(sigma->0) =     -215.43255502


--------------------------------------------------------------------------------------------------------




----------------------------------------- Iteration    1(  10)  ---------------------------------------


    POTLOK:  cpu time    1.82: real time    1.82
    SETDIJ:  cpu time    0.08: real time    0.08
     EDDAV:  cpu time 1664.66: real time 1671.69
 BZINTS: Fermi energy:  3.130469;488.000000 electrons
         Band energy:***********;  BLOECHL correction:  0.000000
       DOS:  cpu time    0.02: real time    0.02
    CHARGE:  cpu time   23.15: real time   23.22
    MIXING:  cpu time    0.07: real time    0.07
    --------------------------------------------
      LOOP:  cpu time 1689.81: real time 1696.96

 eigenvalue-minimisations  : 10472
 total energy-change (2. order) :-0.4838540E-02  (-0.3540072E-02)
 number of electron     487.9999995 magnetization 
 augmentation part      134.7457900 magnetization 

 Broyden mixing:
  rms(total) = 0.10615E+00    rms(broyden)= 0.10615E+00
  rms(prec ) = 0.11002E+00
  weight for this iteration     100.00

 eigenvalues of (default mixing * dielectric matrix)
  average eigenvalue GAMMA=   1.5989
  2.4522  2.4522  1.1487  1.1487  0.7926

 Free energy of the ion-electron system (eV)
  ---------------------------------------------------
  alpha Z        PSCENC =      1241.77088299
  Ewald energy   TEWEN  =    -31088.60909038
  -Hartree energ DENC   =    -13867.93654273
  -exchange      EXHF   =         0.00000000
  -V(xc)+E(xc)   XCENC  =      1095.37452220
  PAW double counting   =     59878.59402753   -59324.36068100
  entropy T*S    EENTRO =         0.00000000
  eigenvalues    EBANDS =     -2306.44213353
  atomic energy  EATOM  =     44156.17162135
  ---------------------------------------------------
  free energy    TOTEN  =      -215.43739356 eV

  energy without entropy =     -215.43739356  energy(sigma->0) =     -215.43739356


--------------------------------------------------------------------------------------------------------




----------------------------------------- Iteration    1(  11)  ---------------------------------------


    POTLOK:  cpu time    1.61: real time    1.61
    SETDIJ:  cpu time    0.08: real time    0.08
     EDDAV:  cpu time 1306.87: real time 1312.40
 BZINTS: Fermi energy:  3.130469;488.000000 electrons
         Band energy:***********;  BLOECHL correction:  0.000000
       DOS:  cpu time    0.02: real time    0.02
    CHARGE:  cpu time   20.73: real time   20.81
    MIXING:  cpu time    0.07: real time    0.07
    --------------------------------------------
      LOOP:  cpu time 1329.38: real time 1335.06

 eigenvalue-minimisations  : 10768
 total energy-change (2. order) :-0.5592565E-02  (-0.1174004E-02)
 number of electron     487.9999995 magnetization 
 augmentation part      134.7219329 magnetization 

 Broyden mixing:
  rms(total) = 0.27760E-01    rms(broyden)= 0.27760E-01
  rms(prec ) = 0.33462E-01
  weight for this iteration     100.00

 eigenvalues of (default mixing * dielectric matrix)
  average eigenvalue GAMMA=   1.4750
  2.3837  2.3837  1.1153  1.1153  0.9259  0.9259

 Free energy of the ion-electron system (eV)
  ---------------------------------------------------
  alpha Z        PSCENC =      1241.77088299
  Ewald energy   TEWEN  =    -31088.60909038
  -Hartree energ DENC   =    -13870.61815966
  -exchange      EXHF   =         0.00000000
  -V(xc)+E(xc)   XCENC  =      1095.53234994
  PAW double counting   =     59836.35856539   -59282.07009607
  entropy T*S    EENTRO =         0.00000000
  eigenvalues    EBANDS =     -2303.97905969
  atomic energy  EATOM  =     44156.17162135
  ---------------------------------------------------
  free energy    TOTEN  =      -215.44298613 eV

  energy without entropy =     -215.44298613  energy(sigma->0) =     -215.44298613


--------------------------------------------------------------------------------------------------------




----------------------------------------- Iteration    1(  12)  ---------------------------------------


    POTLOK:  cpu time    1.96: real time    1.97
    SETDIJ:  cpu time    0.10: real time    0.09
     EDDAV:  cpu time 1365.30: real time 1372.64
 BZINTS: Fermi energy:  3.139844;488.000000 electrons
         Band energy:***********;  BLOECHL correction:  0.000000
       DOS:  cpu time    0.02: real time    0.02
    CHARGE:  cpu time   34.12: real time   34.48
    MIXING:  cpu time    0.08: real time    0.07
    --------------------------------------------
      LOOP:  cpu time 1401.59: real time 1409.37

 eigenvalue-minimisations  : 10624
 total energy-change (2. order) : 0.1072423E-02  (-0.4321379E-03)
 number of electron     487.9999995 magnetization 
 augmentation part      134.7392594 magnetization 

 Broyden mixing:
  rms(total) = 0.14973E-01    rms(broyden)= 0.14973E-01
  rms(prec ) = 0.16783E-01
  weight for this iteration     100.00

 eigenvalues of (default mixing * dielectric matrix)
  average eigenvalue GAMMA=   1.4781
  2.3681  2.3681  1.3456  1.3456  1.0644  1.0644  0.7902

 Free energy of the ion-electron system (eV)
  ---------------------------------------------------
  alpha Z        PSCENC =      1241.77088299
  Ewald energy   TEWEN  =    -31088.60909038
  -Hartree energ DENC   =    -13870.47423776
  -exchange      EXHF   =         0.00000000
  -V(xc)+E(xc)   XCENC  =      1095.58746498
  PAW double counting   =     59819.22336197   -59264.60715900
  entropy T*S    EENTRO =         0.00000000
  eigenvalues    EBANDS =     -2304.50475786
  atomic energy  EATOM  =     44156.17162135
  ---------------------------------------------------
  free energy    TOTEN  =      -215.44191371 eV

  energy without entropy =     -215.44191371  energy(sigma->0) =     -215.44191371


--------------------------------------------------------------------------------------------------------




----------------------------------------- Iteration    1(  13)  ---------------------------------------


    POTLOK:  cpu time    1.94: real time    2.19
    SETDIJ:  cpu time    0.09: real time    0.10
     EDDAV:  cpu time 1488.03: real time 1501.42
 BZINTS: Fermi energy:  3.142187;488.000000 electrons
         Band energy:***********;  BLOECHL correction:  0.000000
       DOS:  cpu time    0.02: real time    0.02
    CHARGE:  cpu time   20.32: real time   20.36
    MIXING:  cpu time    0.06: real time    0.07
    --------------------------------------------
      LOOP:  cpu time 1510.45: real time 1524.20

 eigenvalue-minimisations  :  9816
 total energy-change (2. order) :-0.4122662E-03  (-0.1263775E-03)
 number of electron     487.9999995 magnetization 
 augmentation part      134.7441094 magnetization 

 Broyden mixing:
  rms(total) = 0.73192E-02    rms(broyden)= 0.73192E-02
  rms(prec ) = 0.83113E-02
  weight for this iteration     100.00

 eigenvalues of (default mixing * dielectric matrix)
  average eigenvalue GAMMA=   1.5262
  2.5635  2.5635  1.4814  1.3751  1.3751  0.8344  1.0085  1.0085

 Free energy of the ion-electron system (eV)
  ---------------------------------------------------
  alpha Z        PSCENC =      1241.77088299
  Ewald energy   TEWEN  =    -31088.60909038
  -Hartree energ DENC   =    -13871.04912777
  -exchange      EXHF   =         0.00000000
  -V(xc)+E(xc)   XCENC  =      1095.62835630
  PAW double counting   =     59821.44862180   -59266.77376648
  entropy T*S    EENTRO =         0.00000000
  eigenvalues    EBANDS =     -2304.02982379
  atomic energy  EATOM  =     44156.17162135
  ---------------------------------------------------
  free energy    TOTEN  =      -215.44232597 eV

  energy without entropy =     -215.44232597  energy(sigma->0) =     -215.44232597


--------------------------------------------------------------------------------------------------------




----------------------------------------- Iteration    1(  14)  ---------------------------------------


    POTLOK:  cpu time    1.66: real time    1.67
    SETDIJ:  cpu time    0.08: real time    0.09
     EDDAV:  cpu time 1262.51: real time 1267.20
 BZINTS: Fermi energy:  3.142187;488.000000 electrons
         Band energy:***********;  BLOECHL correction:  0.000000
       DOS:  cpu time    0.02: real time    0.02
    CHARGE:  cpu time   25.19: real time   25.20
    MIXING:  cpu time    0.12: real time    0.12
    --------------------------------------------
      LOOP:  cpu time 1289.58: real time 1294.31

 eigenvalue-minimisations  :  8640
 total energy-change (2. order) :-0.1681937E-03  (-0.1534742E-04)
 number of electron     487.9999995 magnetization 
 augmentation part      134.7430578 magnetization 

 Broyden mixing:
  rms(total) = 0.30371E-02    rms(broyden)= 0.30371E-02
  rms(prec ) = 0.35581E-02
  weight for this iteration     100.00

 eigenvalues of (default mixing * dielectric matrix)
  average eigenvalue GAMMA=   1.5085
  2.8078  2.1655  2.1655  1.3693  1.3693  1.0292  1.0292  0.8480  0.7929

 Free energy of the ion-electron system (eV)
  ---------------------------------------------------
  alpha Z        PSCENC =      1241.77088299
  Ewald energy   TEWEN  =    -31088.60909038
  -Hartree energ DENC   =    -13871.44389587
  -exchange      EXHF   =         0.00000000
  -V(xc)+E(xc)   XCENC  =      1095.64736262
  PAW double counting   =     59806.48956132   -59251.79409776
  entropy T*S    EENTRO =         0.00000000
  eigenvalues    EBANDS =     -2303.67483843
  atomic energy  EATOM  =     44156.17162135
  ---------------------------------------------------
  free energy    TOTEN  =      -215.44249417 eV

  energy without entropy =     -215.44249417  energy(sigma->0) =     -215.44249417


--------------------------------------------------------------------------------------------------------




----------------------------------------- Iteration    1(  15)  ---------------------------------------


    POTLOK:  cpu time    2.32: real time    2.33
    SETDIJ:  cpu time    0.09: real time    0.13
     EDDAV:  cpu time  983.99: real time  989.18
 BZINTS: Fermi energy:  3.142187;488.000000 electrons
         Band energy:***********;  BLOECHL correction:  0.000000
       DOS:  cpu time    0.02: real time    0.02
    CHARGE:  cpu time   24.49: real time   24.49
    MIXING:  cpu time    0.07: real time    0.07
    --------------------------------------------
      LOOP:  cpu time 1010.98: real time 1016.23

 eigenvalue-minimisations  :  7064
 total energy-change (2. order) :-0.3467473E-04  (-0.2155640E-05)
 number of electron     487.9999995 magnetization 
 augmentation part      134.7434429 magnetization 

 Broyden mixing:
  rms(total) = 0.18520E-02    rms(broyden)= 0.18520E-02
  rms(prec ) = 0.22632E-02
  weight for this iteration     100.00

 eigenvalues of (default mixing * dielectric matrix)
  average eigenvalue GAMMA=   1.5971
  3.2050  2.4343  2.4343  1.4979  1.4979  1.0655  1.0655  0.8278  0.9714  0.9714

 Free energy of the ion-electron system (eV)
  ---------------------------------------------------
  alpha Z        PSCENC =      1241.77088299
  Ewald energy   TEWEN  =    -31088.60909038
  -Hartree energ DENC   =    -13871.55950128
  -exchange      EXHF   =         0.00000000
  -V(xc)+E(xc)   XCENC  =      1095.65436494
  PAW double counting   =     59810.93801158   -59256.23333358
  entropy T*S    EENTRO =         0.00000000
  eigenvalues    EBANDS =     -2303.57548446
  atomic energy  EATOM  =     44156.17162135
  ---------------------------------------------------
  free energy    TOTEN  =      -215.44252884 eV

  energy without entropy =     -215.44252884  energy(sigma->0) =     -215.44252884


--------------------------------------------------------------------------------------------------------




----------------------------------------- Iteration    1(  16)  ---------------------------------------


    POTLOK:  cpu time    1.78: real time    1.78
    SETDIJ:  cpu time    0.08: real time    0.08
     EDDAV:  cpu time 1119.46: real time 1125.19
 BZINTS: Fermi energy:  3.142187;488.000000 electrons
         Band energy:***********;  BLOECHL correction:  0.000000
       DOS:  cpu time    0.02: real time    0.02
    CHARGE:  cpu time   24.62: real time   25.40
    MIXING:  cpu time    0.07: real time    0.07
    --------------------------------------------
      LOOP:  cpu time 1146.04: real time 1152.56

 eigenvalue-minimisations  :  6640
 total energy-change (2. order) :-0.1413455E-04  (-0.2365707E-05)
 number of electron     487.9999995 magnetization 
 augmentation part      134.7424567 magnetization 

 Broyden mixing:
  rms(total) = 0.51910E-03    rms(broyden)= 0.51910E-03
  rms(prec ) = 0.62161E-03
  weight for this iteration     100.00

 eigenvalues of (default mixing * dielectric matrix)
  average eigenvalue GAMMA=   1.5704
  3.3958  2.3880  2.3880  1.4281  1.4281  1.2707  1.2707  1.0134  1.0134  0.8391
  0.8391

 Free energy of the ion-electron system (eV)
  ---------------------------------------------------
  alpha Z        PSCENC =      1241.77088299
  Ewald energy   TEWEN  =    -31088.60909038
  -Hartree energ DENC   =    -13871.74715220
  -exchange      EXHF   =         0.00000000
  -V(xc)+E(xc)   XCENC  =      1095.65781644
  PAW double counting   =     59810.90788269   -59256.22140693
  entropy T*S    EENTRO =         0.00000000
  eigenvalues    EBANDS =     -2303.37309693
  atomic energy  EATOM  =     44156.17162135
  ---------------------------------------------------
  free energy    TOTEN  =      -215.44254297 eV

  energy without entropy =     -215.44254297  energy(sigma->0) =     -215.44254297


--------------------------------------------------------------------------------------------------------




----------------------------------------- Iteration    1(  17)  ---------------------------------------


    POTLOK:  cpu time    1.73: real time    1.75
    SETDIJ:  cpu time    0.08: real time    0.09
     EDDAV:  cpu time 1183.40: real time 1192.51
 BZINTS: Fermi energy:  3.142187;488.000000 electrons
         Band energy:***********;  BLOECHL correction:  0.000000
       DOS:  cpu time    0.02: real time    0.02
    --------------------------------------------
      LOOP:  cpu time 1185.24: real time 1194.38

 eigenvalue-minimisations  :  5880
 total energy-change (2. order) :-0.2139059E-06  (-0.5374366E-06)
 number of electron     487.9999995 magnetization 
 augmentation part      134.7424567 magnetization 

 Free energy of the ion-electron system (eV)
  ---------------------------------------------------
  alpha Z        PSCENC =      1241.77088299
  Ewald energy   TEWEN  =    -31088.60909038
  -Hartree energ DENC   =    -13871.76119153
  -exchange      EXHF   =         0.00000000
  -V(xc)+E(xc)   XCENC  =      1095.65714439
  PAW double counting   =     59809.36414840   -59254.67863995
  entropy T*S    EENTRO =         0.00000000
  eigenvalues    EBANDS =     -2303.35741846
  atomic energy  EATOM  =     44156.17162135
  ---------------------------------------------------
  free energy    TOTEN  =      -215.44254319 eV

  energy without entropy =     -215.44254319  energy(sigma->0) =     -215.44254319


--------------------------------------------------------------------------------------------------------




 average (electrostatic) potential at core
  the test charge radii are     1.0698  1.0774  0.9698
  (the norm of the test charge is              1.0000)
       1 -37.4004       2 -37.4002       3 -37.7210       4 -37.3988       5 -37.3961
       6 -37.3961       7 -37.3958       8 -37.3618       9 -97.0301      10 -96.9755
      11 -96.9209      12 -97.2482      13 -96.9761      14 -97.2476      15 -96.9208
      16 -97.0305      17 -97.2482      18 -96.9760      19 -96.9204      20 -96.9763
      21 -97.0306      22 -96.9759      23 -96.9756      24 -97.0772      25 -87.1430
      26 -87.1757      27 -87.0708      28 -87.0890      29 -87.0758      30 -87.0549
      31 -87.1561      32 -87.3873      33 -87.0740      34 -87.3883      35 -87.1577
      36 -87.1748      37 -87.0896      38 -87.0709      39 -87.1398      40 -87.0897
      41 -87.1753      42 -87.3884      43 -87.0546      44 -87.0724      45 -87.1566
      46 -87.0748      47 -87.0709      48 -87.1749      49 -87.1413      50 -87.1750
      51 -87.0528      52 -87.0760      53 -87.0747      54 -87.1745      55 -87.0271
 
 
 
 E-fermi :   3.1422     XC(G=0):  -9.2191     alpha+bet : -9.6448


 k-point     1 :       0.0000    0.0000    0.0000
  band No.  band energies     occupation 
      1     -10.8405      2.00000
      2     -10.8403      2.00000
      3     -10.8272      2.00000
      4     -10.7620      2.00000
      5     -10.7619      2.00000
      6     -10.6922      2.00000
      7     -10.6600      2.00000
      8     -10.6598      2.00000
      9     -10.6133      2.00000
     10     -10.5877      2.00000
     11     -10.5876      2.00000
     12     -10.5492      2.00000
     13     -10.5487      2.00000
     14     -10.5459      2.00000
     15     -10.5293      2.00000
     16     -10.5251      2.00000
     17     -10.5011      2.00000
     18     -10.4777      2.00000
     19     -10.4775      2.00000
     20     -10.4689      2.00000
     21     -10.4686      2.00000
     22     -10.4544      2.00000
     23     -10.4541      2.00000
     24     -10.4462      2.00000
     25     -10.4193      2.00000
     26     -10.4090      2.00000
     27     -10.4087      2.00000
     28     -10.3907      2.00000
     29     -10.3904      2.00000
     30     -10.3801      2.00000
     31     -10.3330      2.00000
     32     -10.3328      2.00000
     33     -10.2989      2.00000
     34     -10.2987      2.00000
     35     -10.2933      2.00000
     36     -10.2931      2.00000
     37     -10.2831      2.00000
     38     -10.2830      2.00000
     39     -10.2785      2.00000
     40     -10.2640      2.00000
     41     -10.2576      2.00000
     42     -10.2575      2.00000
     43     -10.2467      2.00000
     44     -10.2464      2.00000
     45     -10.2309      2.00000
     46     -10.2308      2.00000
     47     -10.2195      2.00000
     48     -10.2124      2.00000
     49     -10.2123      2.00000
     50     -10.2104      2.00000
     51     -10.2093      2.00000
     52     -10.2073      2.00000
     53     -10.2072      2.00000
     54     -10.1990      2.00000
     55     -10.1987      2.00000
     56     -10.1841      2.00000
     57     -10.1812      2.00000
     58     -10.1694      2.00000
     59     -10.1693      2.00000
     60     -10.1627      2.00000
     61     -10.1626      2.00000
     62     -10.1529      2.00000
     63     -10.1528      2.00000
     64     -10.1498      2.00000
     65     -10.1490      2.00000
     66     -10.1463      2.00000
     67     -10.1430      2.00000
     68     -10.1430      2.00000
     69     -10.1408      2.00000
     70     -10.1345      2.00000
     71     -10.1288      2.00000
     72     -10.1286      2.00000
     73     -10.1088      2.00000
     74     -10.1086      2.00000
     75     -10.1032      2.00000
     76     -10.0985      2.00000
     77     -10.0982      2.00000
     78     -10.0781      2.00000
     79     -10.0779      2.00000
     80     -10.0690      2.00000
     81      -9.4252      2.00000
     82      -8.9927      2.00000
     83      -8.9922      2.00000
     84      -8.9432      2.00000
     85      -8.9427      2.00000
     86      -8.9403      2.00000
     87      -8.9105      2.00000
     88      -8.5180      2.00000
     89      -8.3341      2.00000
     90      -8.3337      2.00000
     91      -8.2285      2.00000
     92      -8.2282      2.00000
     93      -8.2082      2.00000
     94      -8.1611      2.00000
     95      -8.1602      2.00000
     96      -8.1572      2.00000
     97      -8.1411      2.00000
     98      -7.9731      2.00000
     99      -7.9721      2.00000
    100      -7.9480      2.00000
    101      -7.9478      2.00000
    102      -7.9469      2.00000
    103      -7.7384      2.00000
    104      -7.5894      2.00000
    105      -7.5889      2.00000
    106      -7.5734      2.00000
    107      -7.5729      2.00000
    108      -7.5488      2.00000
    109      -7.4833      2.00000
    110      -7.4828      2.00000
    111      -7.4600      2.00000
    112      -4.4229      2.00000
    113      -4.4180      2.00000
    114      -4.4177      2.00000
    115      -4.3691      2.00000
    116      -4.3690      2.00000
    117      -4.2265      2.00000
    118      -4.2261      2.00000
    119      -4.2152      2.00000
    120      -4.1754      2.00000
    121      -4.1748      2.00000
    122      -4.1744      2.00000
    123      -4.1300      2.00000
    124      -4.1295      2.00000
    125      -4.1294      2.00000
    126      -4.0967      2.00000
    127      -4.0802      2.00000
    128      -4.0800      2.00000
    129      -4.0605      2.00000
    130      -4.0605      2.00000
    131      -4.0569      2.00000
    132      -4.0426      2.00000
    133      -4.0424      2.00000
    134      -4.0416      2.00000
    135      -4.0416      2.00000
    136      -4.0389      2.00000
    137      -4.0387      2.00000
    138      -4.0379      2.00000
    139      -4.0378      2.00000
    140      -4.0371      2.00000
    141      -4.0367      2.00000
    142      -4.0274      2.00000
    143      -4.0274      2.00000
    144      -4.0209      2.00000
    145      -4.0205      2.00000
    146      -4.0130      2.00000
    147      -4.0104      2.00000
    148      -4.0073      2.00000
    149      -4.0072      2.00000
    150      -4.0000      2.00000
    151      -3.9999      2.00000
    152      -2.1152      2.00000
    153      -2.0741      2.00000
    154      -1.9993      2.00000
    155      -1.9991      2.00000
    156      -1.6603      2.00000
    157      -1.6601      2.00000
    158      -1.6165      2.00000
    159      -1.5607      2.00000
    160      -1.5120      2.00000
    161      -1.5118      2.00000
    162      -1.4902      2.00000
    163      -1.2659      2.00000
    164      -1.1980      2.00000
    165      -1.1976      2.00000
    166      -1.1433      2.00000
    167      -1.1433      2.00000
    168      -1.0647      2.00000
    169      -0.3167      2.00000
    170      -0.3165      2.00000
    171      -0.2835      2.00000
    172      -0.2667      2.00000
    173      -0.2663      2.00000
    174      -0.2301      2.00000
    175      -0.2297      2.00000
    176       0.0348      2.00000
    177       0.3216      2.00000
    178       0.3866      2.00000
    179       0.3868      2.00000
    180       0.4581      2.00000
    181       0.4869      2.00000
    182       0.4874      2.00000
    183       0.5589      2.00000
    184       0.7248      2.00000
    185       0.7248      2.00000
    186       0.7454      2.00000
    187       0.7460      2.00000
    188       0.7493      2.00000
    189       0.9133      2.00000
    190       0.9138      2.00000
    191       0.9203      2.00000
    192       0.9575      2.00000
    193       1.0170      2.00000
    194       1.0174      2.00000
    195       1.0209      2.00000
    196       1.0401      2.00000
    197       1.0407      2.00000
    198       1.0411      2.00000
    199       1.0932      2.00000
    200       1.0936      2.00000
    201       1.2229      2.00000
    202       1.2890      2.00000
    203       1.2897      2.00000
    204       1.4983      2.00000
    205       1.5540      2.00000
    206       1.5547      2.00000
    207       1.6686      2.00000
    208       1.6690      2.00000
    209       1.6916      2.00000
    210       1.7628      2.00000
    211       1.7630      2.00000
    212       1.8897      2.00000
    213       1.8902      2.00000
    214       1.9299      2.00000
    215       1.9310      2.00000
    216       1.9840      2.00000
    217       2.0853      2.00000
    218       2.0857      2.00000
    219       2.2267      2.00000
    220       2.2507      2.00000
    221       2.2730      2.00000
    222       2.2732      2.00000
    223       2.4867      2.00000
    224       2.4870      2.00000
    225       2.6967      2.00000
    226       2.6969      2.00000
    227       2.7467      2.00000
    228       2.7469      2.00000
    229       2.7598      2.00000
    230       2.7752      2.00000
    231       2.8033      2.00000
    232       2.8199      2.00000
    233       2.8202      2.00000
    234       2.8511      2.00000
    235       2.8514      2.00000
    236       2.9598      2.00000
    237       2.9601      2.00000
    238       2.9753      2.00000
    239       3.0156      2.00000
    240       3.0160      2.00000
    241       3.0381      2.00000
    242       3.0748      2.00000
    243       3.0752      2.00000
    244       3.0786      2.00000
    245       4.0908      0.00000
    246       4.9543      0.00000
    247       5.2305      0.00000
    248       5.2306      0.00000
    249       5.5133      0.00000
    250       5.9522      0.00000
    251       6.1354      0.00000
    252       6.1365      0.00000
    253       6.2259      0.00000
    254       6.3200      0.00000
    255       6.3204      0.00000
    256       6.4260      0.00000
    257       6.5190      0.00000
    258       6.5198      0.00000
    259       6.6146      0.00000
    260       6.6360      0.00000
    261       6.6366      0.00000
    262       6.9472      0.00000
    263       7.0485      0.00000
    264       7.3323      0.00000
    265       7.4865      0.00000
    266       7.4868      0.00000
    267       7.5761      0.00000
    268       7.5768      0.00000
    269       7.5776      0.00000
    270       7.6508      0.00000
    271       7.6520      0.00000
    272       8.1578      0.00000
    273       8.2795      0.00000
[...]
  6        0.407   0.281   9.561  10.249
  7        0.406   0.281   9.561  10.248
  8        0.407   0.283   9.560  10.250
  9        0.717   0.582   9.945  11.245
 10        0.717   0.588   9.948  11.253
 11        0.716   0.588   9.948  11.251
 12        0.747   0.613   9.938  11.298
 13        0.717   0.588   9.948  11.253
 14        0.747   0.613   9.938  11.298
 15        0.716   0.588   9.948  11.251
 16        0.717   0.583   9.945  11.245
 17        0.747   0.613   9.938  11.298
 18        0.717   0.588   9.948  11.253
 19        0.716   0.588   9.948  11.251
 20        0.717   0.588   9.948  11.253
 21        0.717   0.583   9.945  11.245
 22        0.717   0.588   9.948  11.254
 23        0.717   0.588   9.948  11.253
 24        0.718   0.581   9.944  11.243
 25        1.338   2.376   0.000   3.714
 26        1.339   2.365   0.000   3.705
 27        1.337   2.371   0.000   3.709
 28        1.338   2.371   0.000   3.709
 29        1.338   2.369   0.000   3.707
 30        1.337   2.370   0.000   3.707
 31        1.338   2.380   0.000   3.718
 32        1.340   2.359   0.000   3.700
 33        1.338   2.369   0.000   3.707
 34        1.340   2.359   0.000   3.700
 35        1.338   2.380   0.000   3.718
 36        1.339   2.365   0.000   3.705
 37        1.338   2.371   0.000   3.709
 38        1.337   2.371   0.000   3.709
 39        1.338   2.376   0.000   3.714
 40        1.338   2.371   0.000   3.709
 41        1.339   2.365   0.000   3.705
 42        1.340   2.359   0.000   3.700
 43        1.337   2.370   0.000   3.707
 44        1.338   2.369   0.000   3.707
 45        1.338   2.380   0.000   3.718
 46        1.338   2.369   0.000   3.707
 47        1.337   2.371   0.000   3.709
 48        1.339   2.365   0.000   3.705
 49        1.338   2.376   0.000   3.714
 50        1.339   2.365   0.000   3.705
 51        1.337   2.370   0.000   3.707
 52        1.338   2.369   0.000   3.707
 53        1.338   2.369   0.000   3.707
 54        1.339   2.365   0.000   3.705
 55        1.337   2.375   0.000   3.712
------------------------------------------------
tot       56.336  85.145 235.601 377.083
 
    CHARGE:  cpu time   34.65: real time   34.67
    FORLOC:  cpu time    0.70: real time    0.69
    FORNL :  cpu time  320.62: real time  321.24
    FORCOR:  cpu time    2.25: real time    2.26
    FORHAR:  cpu time    1.08: real time    1.08
    MIXING:  cpu time    0.07: real time    0.07
    OFIELD:  cpu time    0.00: real time    0.00

 VOLUME and BASIS-vectors are now :
 -----------------------------------------------------------------------------
  energy-cutoff  :      600.00
  volume of cell :     1339.13
      direct lattice vectors                 reciprocal lattice vectors
    11.022353692  0.000000000  0.000000000     0.090724724  0.000000000  0.000000000
     0.000000000 11.022353692  0.000000000     0.000000000  0.090724724  0.000000000
     0.000000000  0.000000000 11.022353692     0.000000000  0.000000000  0.090724724

  length of vectors
    11.022353692 11.022353692 11.022353692     0.090724724  0.090724724  0.090724724


 FORCES acting on ions
    electron-ion (+dipol)            ewald-force                    non-local-force                 convergence-correction
 -----------------------------------------------------------------------------------------------
   -.215E+02 -.214E+02 0.228E+02   0.210E+02 0.209E+02 -.223E+02   0.483E+00 0.485E+00 -.513E+00   0.711E-04 0.507E-04 0.165E-04
   -.216E+02 0.226E+02 -.215E+02   0.211E+02 -.222E+02 0.210E+02   0.490E+00 -.510E+00 0.481E+00   0.775E-04 0.163E-04 0.611E-04
   0.135E+03 0.135E+03 0.136E+03   -.135E+03 -.135E+03 -.136E+03   -.165E+00 -.162E+00 -.160E+00   -.157E-02 -.157E-02 -.157E-02
   0.227E+02 -.216E+02 -.217E+02   -.222E+02 0.212E+02 0.213E+02   -.513E+00 0.495E+00 0.486E+00   0.246E-04 0.547E-04 0.653E-04
   0.542E+02 -.290E+02 -.290E+02   -.540E+02 0.289E+02 0.289E+02   -.179E+00 0.896E-01 0.899E-01   -.131E-02 0.828E-03 0.822E-03
   -.289E+02 -.288E+02 0.540E+02   0.289E+02 0.287E+02 -.538E+02   0.869E-01 0.887E-01 -.175E+00   0.831E-03 0.823E-03 -.128E-02
   -.292E+02 0.540E+02 -.290E+02   0.291E+02 -.538E+02 0.289E+02   0.928E-01 -.178E+00 0.892E-01   0.823E-03 -.128E-02 0.818E-03
   -.110E+02 -.112E+02 -.109E+02   0.112E+02 0.114E+02 0.112E+02   -.217E+00 -.211E+00 -.217E+00   -.592E-03 -.567E-03 -.572E-03
   0.402E+02 0.398E+02 -.536E+02   -.400E+02 -.396E+02 0.526E+02   -.213E+00 -.225E+00 0.966E+00   -.845E-03 -.832E-03 0.688E-03
   0.125E+02 -.216E+02 0.200E+02   -.127E+02 0.213E+02 -.195E+02   0.178E+00 0.312E+00 -.530E+00   0.398E-03 -.369E-03 -.498E-03
   -.374E+01 -.124E+02 -.388E+01   0.376E+01 0.123E+02 0.391E+01   -.252E-01 0.884E-01 -.307E-01   -.251E-03 0.279E-03 -.251E-03
   -.206E+03 0.335E+02 0.336E+02   0.203E+03 -.332E+02 -.333E+02   0.263E+01 -.343E+00 -.342E+00   0.131E-02 0.375E-03 0.360E-03
   -.216E+02 0.123E+02 0.201E+02   0.213E+02 -.125E+02 -.196E+02   0.326E+00 0.187E+00 -.517E+00   -.376E-03 0.409E-03 -.492E-03
   0.335E+02 -.206E+03 0.338E+02   -.331E+02 0.203E+03 -.335E+02   -.341E+00 0.264E+01 -.341E+00   0.364E-03 0.129E-02 0.351E-03
   -.128E+02 -.383E+01 -.399E+01   0.127E+02 0.386E+01 0.401E+01   0.905E-01 -.303E-01 -.264E-01   0.277E-03 -.249E-03 -.236E-03
   0.402E+02 -.534E+02 0.400E+02   -.399E+02 0.525E+02 -.398E+02   -.223E+00 0.973E+00 -.232E+00   -.831E-03 0.689E-03 -.823E-03
   0.335E+02 0.337E+02 -.206E+03   -.332E+02 -.334E+02 0.203E+03   -.337E+00 -.347E+00 0.262E+01   0.347E-03 0.356E-03 0.130E-02
   -.216E+02 0.200E+02 0.124E+02   0.213E+02 -.195E+02 -.126E+02   0.323E+00 -.523E+00 0.184E+00   -.373E-03 -.499E-03 0.401E-03
   -.375E+01 -.384E+01 -.126E+02   0.377E+01 0.387E+01 0.124E+02   -.186E-01 -.256E-01 0.955E-01   -.238E-03 -.248E-03 0.281E-03
   0.124E+02 0.200E+02 -.217E+02   -.126E+02 -.195E+02 0.214E+02   0.189E+00 -.509E+00 0.347E+00   0.393E-03 -.500E-03 -.377E-03
   -.533E+02 0.399E+02 0.402E+02   0.523E+02 -.397E+02 -.399E+02   0.980E+00 -.227E+00 -.225E+00   0.692E-03 -.845E-03 -.825E-03
   0.199E+02 0.126E+02 -.218E+02   -.194E+02 -.127E+02 0.215E+02   -.532E+00 0.174E+00 0.319E+00   -.488E-03 0.394E-03 -.362E-03
   0.199E+02 -.216E+02 0.128E+02   -.194E+02 0.213E+02 -.130E+02   -.531E+00 0.318E+00 0.165E+00   -.508E-03 -.368E-03 0.400E-03
   -.447E+02 -.445E+02 -.447E+02   0.443E+02 0.441E+02 0.442E+02   0.453E+00 0.457E+00 0.456E+00   0.704E-03 0.691E-03 0.683E-03
   0.565E+02 0.570E+02 0.895E+02   -.553E+02 -.558E+02 -.905E+02   -.115E+01 -.112E+01 0.103E+01   -.777E-04 -.401E-04 -.491E-03
   -.222E+02 -.114E+03 0.544E+02   0.219E+02 0.113E+03 -.534E+02   0.317E+00 0.363E+00 -.943E+00   -.443E-03 0.103E-02 -.797E-04
   -.671E+02 0.499E+02 -.671E+02   0.662E+02 -.493E+02 0.662E+02   0.854E+00 -.627E+00 0.851E+00   0.367E-03 -.322E-03 0.367E-03
   0.442E+02 -.496E+02 -.495E+02   -.439E+02 0.489E+02 0.489E+02   -.289E+00 0.622E+00 0.622E+00   -.382E-03 -.329E-04 -.258E-04
   0.506E+02 0.685E+02 -.546E+02   -.499E+02 -.677E+02 0.540E+02   -.654E+00 -.794E+00 0.621E+00   0.132E-04 -.403E-03 0.522E-04
   -.657E+02 -.655E+02 -.546E+02   0.652E+02 0.650E+02 0.538E+02   0.502E+00 0.507E+00 0.791E+00   0.618E-04 0.486E-04 0.356E-03
   0.103E+03 -.105E+02 0.103E+03   -.102E+03 0.865E+01 -.102E+03   -.730E+00 0.184E+01 -.737E+00   -.944E-03 0.435E-03 -.978E-03
   -.583E+02 0.829E+01 0.828E+01   0.575E+02 -.847E+01 -.846E+01   0.855E+00 0.157E+00 0.172E+00   0.412E-03 0.469E-03 0.469E-03
   0.687E+02 0.505E+02 -.546E+02   -.680E+02 -.498E+02 0.540E+02   -.785E+00 -.659E+00 0.622E+00   -.404E-03 -.270E-04 0.565E-04
   0.828E+01 -.581E+02 0.826E+01   -.847E+01 0.573E+02 -.844E+01   0.166E+00 0.861E+00 0.164E+00   0.475E-03 0.413E-03 0.469E-03
   -.104E+02 0.103E+03 0.103E+03   0.860E+01 -.102E+03 -.103E+03   0.184E+01 -.742E+00 -.722E+00   0.426E-03 -.978E-03 -.943E-03
   -.114E+03 -.223E+02 0.543E+02   0.113E+03 0.220E+02 -.533E+02   0.370E+00 0.314E+00 -.945E+00   0.103E-02 -.444E-03 -.736E-04
   -.497E+02 0.442E+02 -.498E+02   0.490E+02 -.439E+02 0.492E+02   0.619E+00 -.287E+00 0.610E+00   0.307E-05 -.389E-03 -.125E-04
   0.499E+02 -.670E+02 -.671E+02   -.493E+02 0.662E+02 0.663E+02   -.629E+00 0.852E+00 0.851E+00   -.317E-03 0.360E-03 0.368E-03
   0.566E+02 0.898E+02 0.568E+02   -.555E+02 -.909E+02 -.557E+02   -.115E+01 0.103E+01 -.115E+01   -.529E-04 -.497E-03 -.768E-04
   -.494E+02 -.498E+02 0.439E+02   0.488E+02 0.492E+02 -.436E+02   0.627E+00 0.615E+00 -.298E+00   -.346E-04 0.794E-05 -.390E-03
   -.114E+03 0.542E+02 -.223E+02   0.113E+03 -.532E+02 0.220E+02   0.369E+00 -.947E+00 0.314E+00   0.102E-02 -.667E-04 -.439E-03
   0.820E+01 0.829E+01 -.581E+02   -.838E+01 -.847E+01 0.572E+02   0.163E+00 0.165E+00 0.859E+00   0.473E-03 0.470E-03 0.410E-03
   -.656E+02 -.546E+02 -.654E+02   0.651E+02 0.538E+02 0.649E+02   0.503E+00 0.791E+00 0.511E+00   0.801E-04 0.360E-03 0.402E-04
   0.687E+02 -.544E+02 0.502E+02   -.680E+02 0.538E+02 -.496E+02   -.786E+00 0.624E+00 -.666E+00   -.405E-03 0.678E-04 -.826E-05
   0.103E+03 0.103E+03 -.104E+02   -.102E+03 -.102E+03 0.860E+01   -.730E+00 -.744E+00 0.184E+01   -.948E-03 -.955E-03 0.436E-03
   0.504E+02 -.544E+02 0.686E+02   -.497E+02 0.538E+02 -.679E+02   -.661E+00 0.625E+00 -.789E+00   -.227E-04 0.495E-04 -.398E-03
   -.671E+02 -.670E+02 0.499E+02   0.663E+02 0.662E+02 -.492E+02   0.851E+00 0.848E+00 -.630E+00   0.371E-03 0.369E-03 -.315E-03
   -.222E+02 0.544E+02 -.114E+03   0.219E+02 -.534E+02 0.113E+03   0.318E+00 -.941E+00 0.366E+00   -.445E-03 -.820E-04 0.105E-02
   0.897E+02 0.566E+02 0.567E+02   -.907E+02 -.555E+02 -.556E+02   0.102E+01 -.114E+01 -.114E+01   -.493E-03 -.458E-04 -.448E-04
   0.543E+02 -.226E+02 -.113E+03   -.534E+02 0.223E+02 0.113E+03   -.941E+00 0.302E+00 0.377E+00   -.827E-04 -.438E-03 0.102E-02
   -.546E+02 -.652E+02 -.657E+02   0.538E+02 0.646E+02 0.652E+02   0.782E+00 0.526E+00 0.502E+00   0.361E-03 0.439E-04 0.853E-04
   -.543E+02 0.506E+02 0.686E+02   0.537E+02 -.499E+02 -.678E+02   0.628E+00 -.655E+00 -.792E+00   0.533E-04 0.105E-04 -.399E-03
   -.542E+02 0.685E+02 0.504E+02   0.536E+02 -.678E+02 -.498E+02   0.629E+00 -.791E+00 -.658E+00   0.663E-04 -.395E-03 0.846E-05
   0.542E+02 -.114E+03 -.222E+02   -.533E+02 0.113E+03 0.219E+02   -.943E+00 0.364E+00 0.317E+00   -.769E-04 0.105E-02 -.439E-03
   0.529E+02 0.529E+02 0.530E+02   -.521E+02 -.521E+02 -.522E+02   -.793E+00 -.792E+00 -.790E+00   -.299E-03 -.301E-03 -.292E-03
 -----------------------------------------------------------------------------------------------
   -.420E+01 -.418E+01 -.415E+01   -.171E-12 0.284E-13 0.497E-12   0.420E+01 0.418E+01 0.415E+01   -.129E-02 -.130E-02 -.126E-02
 
 
 POSITION                                       TOTAL-FORCE (eV/Angst)
 -----------------------------------------------------------------------------------
      0.02673      0.02670      0.03986        -0.005673     -0.006679     -0.011737
      0.02528      5.55070      5.53774        -0.002409     -0.010214     -0.005881
      5.96645      5.96626      0.45495        -0.001523     -0.003315     -0.003182
      5.55001      0.02499      5.53703        -0.007920     -0.001818     -0.004213
      8.18981      2.69492      8.20583         0.002256      0.008228      0.008074
      2.69445      2.69485      2.67785         0.005710      0.004567      0.001773
      2.69473      8.18981      8.20614         0.009652      0.003117      0.009463
      8.30369      8.30195      2.79374        -0.001574      0.000025     -0.005230
      6.89257      6.89359      6.82338         0.006325      0.006841     -0.009258
      4.13062      9.64439      1.43074         0.010999      0.009160     -0.007676
      9.65434      1.38317      4.14334        -0.003092     -0.013937     -0.002097
      1.02165      4.10731      9.61838         0.015400     -0.006776     -0.007436
      9.64347      4.12932      1.42933         0.009694      0.017022     -0.005814
      4.10718      1.02105      9.61764        -0.007637      0.018294     -0.008019
      1.38363      9.65456      4.14333        -0.010241     -0.002336     -0.002182
      6.89373      1.31143      1.38288         0.001529     -0.006307      0.003921
      4.10635      4.10843      6.53194        -0.005601     -0.010011      0.016252
      9.64342      6.94148      9.64115         0.009877     -0.007369      0.013610
      9.65406      9.65435      6.89429        -0.002903     -0.002055     -0.013472
      4.12923      6.93776      4.12953         0.015791      0.000732      0.017609
      1.31094      6.89407      1.38269        -0.008715      0.003055      0.002006
      6.94213      4.13058      4.13290        -0.005255      0.009544      0.007879
      6.94256      9.64487      9.64359        -0.009736      0.007034      0.003882
      1.38233      1.38238      6.89351        -0.005009     -0.005343     -0.005677
      4.24692      4.24413      4.04072         0.002431      0.008365     -0.002515
      6.71148      1.26666      9.75230         0.000663      0.005760     -0.007840
      1.27886      9.76844      6.79027         0.017767      0.003767      0.017241
      9.71706      6.77525      1.26411        -0.001235      0.004981      0.006498
      1.49479      7.00582      4.01655        -0.020540     -0.031634      0.029071
      9.57890      9.57882      9.54428        -0.004015     -0.005329      0.000898
      7.01940      3.99483      1.50825         0.015539     -0.003143      0.015543
      4.05075      1.55688      7.06619         0.001570     -0.018651     -0.012184
      7.00581      1.49513      4.01658        -0.029484     -0.019007      0.030881
      1.55541      4.05110      7.06687        -0.015104      0.001011     -0.015141
      3.99484      7.01989      1.50742        -0.004603      0.013077      0.010919
      1.26626      6.71149      9.75234         0.005214      0.001316     -0.009228
      6.77591      9.71734      1.26565         0.006749     -0.000719      0.006035
      9.76837      1.27903      6.79009         0.003693      0.017012      0.017677
      4.24677      9.55334      9.75795         0.001287     -0.012065      0.000390
      6.77505      6.77497      4.20617         0.005009      0.004877      0.001366
      1.26628      4.24128      1.20023         0.004199     -0.009008      0.000000
      1.55569      1.55591      9.56212        -0.013420     -0.014223     -0.000074
      9.57900      4.03285      4.06733        -0.007148     -0.000054     -0.008531
      7.00586      9.52775      7.00644        -0.029784      0.028911     -0.014478
      7.01912      7.02095      9.50637         0.015778      0.011333     -0.002619
      1.49508      9.52780      1.49466        -0.017383      0.029394     -0.028010
      1.27881      1.27901      4.25714         0.018364      0.017177      0.002823
      6.71106      4.24114      6.77771        -0.000211     -0.008294      0.005034
      9.55326      4.24661      9.75699        -0.009519      0.001120      0.002564
      4.24060      6.71195      6.77647        -0.010619     -0.001066      0.002808
      4.03393      9.57694      4.06740        -0.005793     -0.007624     -0.007507
      9.52778      1.49496      1.49461         0.028921     -0.019526     -0.029000
      9.52764      7.00577      7.00635         0.025367     -0.028234     -0.018739
      4.24086      1.26652      1.19988        -0.007673      0.004814     -0.000197
      9.76777      9.76724      4.25637         0.014034      0.014202      0.013720
 -----------------------------------------------------------------------------------
    total drift:                               -0.001629     -0.001565     -0.001466


--------------------------------------------------------------------------------------------------------



  FREE ENERGIE OF THE ION-ELECTRON SYSTEM (eV)
  ---------------------------------------------------
  free  energy   TOTEN  =      -215.44254319 eV

  energy  without entropy=     -215.44254319  energy(sigma->0) =     -215.44254319
 


--------------------------------------------------------------------------------------------------------


    POTLOK:  cpu time    1.76: real time    1.77


--------------------------------------------------------------------------------------------------------


 writing wavefunctions
     LOOP+:  cpu time24041.59: real time24181.59
    4ORBIT:  cpu time    0.00: real time    0.00
 


 total charge     
 
# of ion     s       p       d       tot
----------------------------------------
  1        0.404   0.273   9.561  10.238
  2        0.404   0.273   9.561  10.238
  3        0.450   0.277   9.551  10.279
  4        0.404   0.273   9.561  10.238
  5        0.407   0.281   9.561  10.248
  6        0.407   0.281   9.561  10.249
  7        0.406   0.281   9.561  10.248
  8        0.407   0.283   9.560  10.250
  9        0.717   0.582   9.945  11.245
 10        0.717   0.588   9.948  11.253
 11        0.716   0.588   9.948  11.251
 12        0.747   0.613   9.938  11.298
 13        0.717   0.588   9.948  11.253
 14        0.747   0.613   9.938  11.298
 15        0.716   0.588   9.948  11.251
 16        0.717   0.583   9.945  11.245
 17        0.747   0.613   9.938  11.298
 18        0.717   0.588   9.948  11.253
 19        0.716   0.588   9.948  11.251
 20        0.717   0.588   9.948  11.253
 21        0.717   0.583   9.945  11.245
 22        0.717   0.588   9.948  11.254
 23        0.717   0.588   9.948  11.253
 24        0.718   0.581   9.944  11.243
 25        1.338   2.376   0.000   3.714
 26        1.339   2.365   0.000   3.705
 27        1.337   2.371   0.000   3.709
 28        1.338   2.371   0.000   3.709
 29        1.338   2.369   0.000   3.707
 30        1.337   2.370   0.000   3.707
 31        1.338   2.380   0.000   3.718
 32        1.340   2.359   0.000   3.700
 33        1.338   2.369   0.000   3.707
 34        1.340   2.359   0.000   3.700
 35        1.338   2.380   0.000   3.718
 36        1.339   2.365   0.000   3.705
 37        1.338   2.371   0.000   3.709
 38        1.337   2.371   0.000   3.709
 39        1.338   2.376   0.000   3.714
 40        1.338   2.371   0.000   3.709
 41        1.339   2.365   0.000   3.705
 42        1.340   2.359   0.000   3.700
 43        1.337   2.370   0.000   3.707
 44        1.338   2.369   0.000   3.707
 45        1.338   2.380   0.000   3.718
 46        1.338   2.369   0.000   3.707
 47        1.337   2.371   0.000   3.709
 48        1.339   2.365   0.000   3.705
 49        1.338   2.376   0.000   3.714
 50        1.339   2.365   0.000   3.705
 51        1.337   2.370   0.000   3.707
 52        1.338   2.369   0.000   3.707
 53        1.338   2.369   0.000   3.707
 54        1.339   2.365   0.000   3.705
 55        1.337   2.375   0.000   3.712
------------------------------------------------
tot       56.336  85.145 235.601 377.083
 
 BZINTS: Fermi energy:  3.142187;488.000000 electrons
         Band energy:***********;  BLOECHL correction:  0.000000

 total amount of memory used by VASP on root node   655573. kBytes
========================================================================

   base      :      30000. kBytes
   nonl-proj :     154993. kBytes
   fftplans  :      35958. kBytes
   grid      :      62735. kBytes
   one-center:        435. kBytes
   wavefun   :     371452. kBytes
 
  
  
 General timing and accounting informations for this job:
 ========================================================
  
                  Total CPU time used (sec):    24200.369
                            User time (sec):    24128.304
                          System time (sec):       72.065
                         Elapsed time (sec):    24348.100
  
                   Maximum memory used (kb):      654520.
                   Average memory used (kb):           0.
  
                          Minor page faults:     23907408
                          Major page faults:            5
                 Voluntary context switches:        59845
