 vasp.5.3.5 31Mar14 (build Feb 04 2015 11:56:40) complex                        
  
 executed on             LinuxIFC date 2016.04.26  19:31:50
 running on    8 total cores
 distrk:  each k-point on    8 cores,    1 groups
 distr:  one band on NCORES_PER_BAND=   1 cores,    8 groups


--------------------------------------------------------------------------------------------------------


 INCAR:
 POTCAR:    PAW_PBE Cd 06Sep2000                  
 POTCAR:    PAW_PBE In_d 06Sep2000                
 POTCAR:    PAW_PBE S 06Sep2000                   

 ----------------------------------------------------------------------------- 
|                                                                             |
|           W    W    AA    RRRRR   N    N  II  N    N   GGGG   !!!           |
|           W    W   A  A   R    R  NN   N  II  NN   N  G    G  !!!           |
|           W    W  A    A  R    R  N N  N  II  N N  N  G       !!!           |
|           W WW W  AAAAAA  RRRRR   N  N N  II  N  N N  G  GGG   !            |
|           WW  WW  A    A  R   R   N   NN  II  N   NN  G    G                |
|           W    W  A    A  R    R  N    N  II  N    N   GGGG   !!!           |
|                                                                             |
|      For optimal performance we recommend to set                            |
|        NCORE= 4 - approx SQRT( number of cores)                             |
|      NCORE specifies how many cores store one orbital (NPAR=cpu/NCORE).     |
|      This setting can  greatly improve the performance of VASP for DFT.     |
|      The default, NPAR=number of cores might be grossly inefficient         |
|      on modern multi-core architectures or massively parallel machines.     |
|      Do your own testing !!!!                                               |
|      Unfortunately you need to use the default for GW and RPA calculations. |
|      (for HF NCORE is supported but not extensively tested yet)             |
|                                                                             |
 ----------------------------------------------------------------------------- 

 POTCAR:    PAW_PBE Cd 06Sep2000                  
   VRHFIN =Cd : s2 d10                                                          
   LEXCH  = PE                                                                  
   EATOM  =  1293.1815 eV,   95.0462 Ry                                         
                                                                                
   TITEL  = PAW_PBE Cd 06Sep2000                                                
   LULTRA =        F    use ultrasoft PP ?                                      
   IUNSCR =        1    unscreen: 0-lin 1-nonlin 2-no                           
   RPACOR =    2.000    partial core radius                                     
   POMASS =  112.411; ZVAL   =   12.000    mass and valenz                      
   RCORE  =    2.300    outmost cutoff radius                                   
   RWIGS  =    2.980; RWIGS  =    1.577    wigner-seitz radius (au A)           
   ENMAX  =  274.336; ENMIN  =  205.752 eV                                      
   RCLOC  =    2.054    cutoff for local pot                                    
   LCOR   =        T    correct aug charges                                     
   LPAW   =        T    paw PP                                                  
   EAUG   =  456.106                                                            
   DEXC   =    0.000                                                            
   RMAX   =    2.358    core radius for proj-oper                               
   RAUG   =    1.300    factor for augmentation sphere                          
   RDEP   =    2.450    radius for radial grids                                 
   RDEPT  =    1.955    core radius for aug-charge                              
                                                                                
   Atomic configuration                                                         
   12 entries                                                                   
     n  l   j            E        occ.                                          
     1  0  0.50    -26519.7817   2.0000                                         
     2  0  0.50     -3936.9612   2.0000                                         
     2  1  1.50     -3532.2230   6.0000                                         
     3  0  0.50      -733.7908   2.0000                                         
     3  1  1.50      -601.0792   6.0000                                         
     3  2  2.50      -393.5307  10.0000                                         
     4  0  0.50      -105.8977   2.0000                                         
     4  1  1.50       -66.9488   6.0000                                         
     4  2  2.50       -11.7331  10.0000                                         
     5  0  0.50        -5.6592   2.0000                                         
     5  1  0.50        -1.3606   0.0000                                         
     4  3  2.50        -1.3606   0.0000                                         
   Description                                                                  
     l       E           TYP  RCUT    TYP  RCUT                                 
     2    -11.7331479     23  2.300                                             
     2    -13.0937305     23  2.300                                             
     0     -5.6591502     23  2.300                                             
     0     -1.5561433     23  2.300                                             
     1     -2.7211652     23  2.300                                             
     1      8.3548275     23  2.300                                             
  local pseudopotential read in
  partial core-charges read in
  partial kinetic energy density read in
  atomic valenz-charges read in
  non local Contribution for L=           2  read in
    real space projection operators read in
  non local Contribution for L=           2  read in
    real space projection operators read in
  non local Contribution for L=           0  read in
    real space projection operators read in
  non local Contribution for L=           0  read in
    real space projection operators read in
  non local Contribution for L=           1  read in
    real space projection operators read in
  non local Contribution for L=           1  read in
    real space projection operators read in
    PAW grid and wavefunctions read in
 
   number of l-projection  operators is LMAX  =           6
   number of lm-projection operators is LMMAX =          18
 
 POTCAR:    PAW_PBE In_d 06Sep2000                
   VRHFIN =In: s2p1                                                             
   LEXCH  = PE                                                                  
   EATOM  =  1576.8302 eV,  115.8937 Ry                                         
                                                                                
   TITEL  = PAW_PBE In_d 06Sep2000                                              
   LULTRA =        F    use ultrasoft PP ?                                      
   IUNSCR =        1    unscreen: 0-lin 1-nonlin 2-no                           
   RPACOR =    2.200    partial core radius                                     
   POMASS =  114.820; ZVAL   =   13.000    mass and valenz                      
   RCORE  =    2.500    outmost cutoff radius                                   
   RWIGS  =    3.170; RWIGS  =    1.677    wigner-seitz radius (au A)           
   ENMAX  =  239.211; ENMIN  =  179.409 eV                                      
   ICORE  =        3    local potential                                         
   LCOR   =        T    correct aug charges                                     
   LPAW   =        T    paw PP                                                  
   EAUG   =  449.704                                                            
   DEXC   =    0.000                                                            
   RMAX   =    2.552    core radius for proj-oper                               
   RAUG   =    1.300    factor for augmentation sphere                          
   RDEP   =    2.630    radius for radial grids                                 
   RDEPT  =    2.033    core radius for aug-charge                              
                                                                                
   Atomic configuration                                                         
   12 entries                                                                   
     n  l   j            E        occ.                                          
     1  0  0.50    -27747.9169   2.0000                                         
     2  0  0.50     -4154.4438   2.0000                                         
     2  1  1.50     -3728.4305   6.0000                                         
     3  0  0.50      -788.3680   2.0000                                         
     3  1  1.50      -648.9215   6.0000                                         
     3  2  2.50      -432.5893  10.0000                                         
     4  0  0.50      -119.6363   2.0000                                         
     4  1  1.50       -78.1086   6.0000                                         
     4  2  2.50       -18.6227  10.0000                                         
     5  0  0.50        -8.2107   2.0000                                         
     5  1  0.50        -2.5185   1.0000                                         
     4  3  2.50        -2.7212   0.0000                                         
   Description                                                                  
     l       E           TYP  RCUT    TYP  RCUT                                 
     2    -18.6226981     23  2.500                                             
     2     -1.3605826     23  2.500                                             
     0     -8.2107305     23  2.500                                             
     0     -6.1485975     23  2.500                                             
     1     -2.5184867     23  2.500                                             
     1      3.2427302     23  2.500                                             
     3     -1.3605826      7  2.500                                             
  local pseudopotential read in
  partial core-charges read in
  partial kinetic energy density read in
  atomic valenz-charges read in
  non local Contribution for L=           2  read in
    real space projection operators read in
  non local Contribution for L=           2  read in
    real space projection operators read in
  non local Contribution for L=           0  read in
    real space projection operators read in
  non local Contribution for L=           0  read in
    real space projection operators read in
  non local Contribution for L=           1  read in
    real space projection operators read in
  non local Contribution for L=           1  read in
    real space projection operators read in
    PAW grid and wavefunctions read in
 
   number of l-projection  operators is LMAX  =           6
   number of lm-projection operators is LMMAX =          18
 
 POTCAR:    PAW_PBE S 06Sep2000                   
   VRHFIN =S : s2p4                                                             
   LEXCH  = PE                                                                  
   EATOM  =   276.8230 eV,   20.3459 Ry                                         
                                                                                
   TITEL  = PAW_PBE S 06Sep2000                                                 
   LULTRA =        F    use ultrasoft PP ?                                      
   IUNSCR =        1    unscreen: 0-lin 1-nonlin 2-no                           
   RPACOR =    1.500    partial core radius                                     
   POMASS =   32.066; ZVAL   =    6.000    mass and valenz                      
   RCORE  =    1.900    outmost cutoff radius                                   
   RWIGS  =    2.200; RWIGS  =    1.164    wigner-seitz radius (au A)           
   ENMAX  =  258.689; ENMIN  =  194.016 eV                                      
   ICORE  =        2    local potential                                         
   LCOR   =        T    correct aug charges                                     
   LPAW   =        T    paw PP                                                  
   EAUG   =  335.092                                                            
   DEXC   =    0.000                                                            
   RMAX   =    1.942    core radius for proj-oper                               
   RAUG   =    1.300    factor for augmentation sphere                          
   RDEP   =    1.954    radius for radial grids                                 
   RDEPT  =    1.744    core radius for aug-charge                              
                                                                                
   Atomic configuration                                                         
    6 entries                                                                   
     n  l   j            E        occ.                                          
     1  0  0.50     -2405.8406   2.0000                                         
     2  0  0.50      -211.7007   2.0000                                         
     2  1  1.50      -156.4958   6.0000                                         
     3  0  0.50       -17.2562   2.0000                                         
     3  1  0.50        -7.0085   4.0000                                         
     3  2  1.50        -6.8029   0.0000                                         
   Description                                                                  
     l       E           TYP  RCUT    TYP  RCUT                                 
     0    -17.2561641     23  1.900                                             
     0    -15.8743224     23  1.900                                             
     1     -7.0085400     23  1.900                                             
     1     -2.7779785     23  1.900                                             
     2     -6.8029130     23  1.900                                             
  local pseudopotential read in
  partial core-charges read in
  partial kinetic energy density read in
  atomic valenz-charges read in
  non local Contribution for L=           0  read in
    real space projection operators read in
  non local Contribution for L=           0  read in
    real space projection operators read in
  non local Contribution for L=           1  read in
    real space projection operators read in
  non local Contribution for L=           1  read in
    real space projection operators read in
    PAW grid and wavefunctions read in
 
   number of l-projection  operators is LMAX  =           4
   number of lm-projection operators is LMMAX =           8
 

 ----------------------------------------------------------------------------- 
|                                                                             |
|  ADVICE TO THIS USER RUNNING 'VASP/VAMP'   (HEAR YOUR MASTER'S VOICE ...):  |
|                                                                             |
|      You have a (more or less) 'large supercell' and for larger cells       |
|      it might be more efficient to use real space projection opertators     |
|      So try LREAL= Auto  in the INCAR   file.                               |
|      Mind: At the moment your POTCAR file does not contain real space       |
|       projectors, and has to be modified,  BUT if you                       |
|      want to do an extremely  accurate calculation you might also keep the  |
|      reciprocal projection scheme          (i.e. LREAL=.FALSE.)             |
|                                                                             |
 ----------------------------------------------------------------------------- 

  PAW_PBE Cd 06Sep2000                  :
 energy of atom  1       EATOM=-1293.1815
 kinetic energy error for atom=    0.0041 (will be added to EATOM!!)
  PAW_PBE In_d 06Sep2000                :
 energy of atom  2       EATOM=-1576.8302
 kinetic energy error for atom=    0.0011 (will be added to EATOM!!)
  PAW_PBE S 06Sep2000                   :
 energy of atom  3       EATOM= -276.8230
 kinetic energy error for atom=    0.0009 (will be added to EATOM!!)
 
 
 POSCAR: Cd In2 S4                               
  positions in direct lattice
  velocities in cartesian coordinates
 exchange correlation table for  LEXCH =        8
   RHO(1)=    0.500       N(1)  =     2000
   RHO(2)=  100.500       N(2)  =     4000
 


--------------------------------------------------------------------------------------------------------


 ion  position               nearest neighbor table
   1  0.000  0.000  0.000-  42 2.57  46 2.57  52 2.57  30 2.57
   2  0.000  0.500  0.500-  29 2.57  34 2.57  43 2.57  53 2.57
   3  0.500  0.500  0.000-  31 2.57  35 2.57  56 2.57  45 2.57
   4  0.500  0.000  0.500-  32 2.57  33 2.57  51 2.57  44 2.57
   5  0.750  0.250  0.750-  49 2.57  38 2.57  48 2.57  26 2.57
   6  0.250  0.250  0.250-  25 2.57  41 2.57  47 2.57  54 2.57
   7  0.250  0.750  0.750-  39 2.57  36 2.57  27 2.57  50 2.57
   8  0.750  0.750  0.250-  55 2.57  37 2.57  40 2.57  28 2.57
   9  0.625  0.625  0.625-  45 2.65  44 2.65  53 2.65  48 2.65  50 2.65  40 2.65  17 3.90  18 3.90
                            19 3.90  20 3.90  22 3.90  23 3.90
  10  0.375  0.875  0.125-  35 2.65  39 2.65  37 2.65  54 2.65  51 2.65  46 2.65  14 3.90  16 3.90
                            23 3.90  20 3.90  21 3.90  15 3.90
  11  0.875  0.125  0.375-  33 2.65  55 2.65  38 2.65  47 2.65  52 2.65  43 2.65  15 3.90  19 3.90
                            24 3.90  13 3.90  22 3.90  16 3.90
  12  0.125  0.375  0.875-  34 2.65  49 2.65  36 2.65  41 2.65  42 2.65  56 2.65  13 3.90  18 3.90
                            21 3.90  14 3.90  17 3.90  24 3.90
  13  0.875  0.375  0.125-  31 2.65  49 2.65  28 2.65  41 2.65  43 2.65  52 2.65  12 3.90  18 3.90
                            21 3.90  11 3.90  16 3.90  22 3.90
  14  0.375  0.125  0.875-  32 2.65  39 2.65  26 2.65  54 2.65  42 2.65  56 2.65  10 3.90  16 3.90
                            23 3.90  17 3.90  12 3.90  24 3.90
  15  0.125  0.875  0.375-  29 2.65  55 2.65  27 2.65  47 2.65  51 2.65  46 2.65  11 3.90  19 3.90
                            24 3.90  20 3.90  21 3.90  10 3.90
  16  0.625  0.125  0.125-  52 2.65  37 2.65  26 2.65  54 2.65  33 2.65  31 2.65  23 3.90  14 3.90
                            10 3.90  11 3.90  22 3.90  13 3.90
  17  0.375  0.375  0.625-  56 2.65  50 2.65  48 2.65  25 2.65  34 2.65  32 2.65   9 3.90  12 3.90
                            14 3.90  20 3.90  22 3.90  24 3.90
  18  0.875  0.625  0.875-  45 2.65  53 2.65  30 2.65  28 2.65  36 2.65  49 2.65  21 3.90  13 3.90
                            12 3.90  19 3.90   9 3.90  23 3.90
  19  0.875  0.875  0.625-  44 2.65  53 2.65  30 2.65  27 2.65  38 2.65  55 2.65  24 3.90  15 3.90
                            11 3.90  18 3.90  23 3.90   9 3.90
  20  0.375  0.625  0.375-  51 2.65  50 2.65  40 2.65  25 2.65  35 2.65  29 2.65   9 3.90  10 3.90
                            15 3.90  17 3.90  21 3.90  22 3.90
  21  0.125  0.625  0.125-  46 2.65  36 2.65  28 2.65  41 2.65  29 2.65  35 2.65  18 3.90  13 3.90
                            12 3.90  15 3.90  10 3.90  20 3.90
  22  0.625  0.375  0.375-  43 2.65  48 2.65  40 2.65  25 2.65  31 2.65  33 2.65   9 3.90  11 3.90
                            13 3.90  16 3.90  17 3.90  20 3.90
  23  0.625  0.875  0.875-  44 2.65  45 2.65  30 2.65  26 2.65  37 2.65  39 2.65  16 3.90  14 3.90
                            10 3.90   9 3.90  18 3.90  19 3.90
  24  0.125  0.125  0.625-  42 2.65  38 2.65  27 2.65  47 2.65  34 2.65  32 2.65  19 3.90  15 3.90
                            11 3.90  12 3.90  17 3.90  14 3.90
  25  0.385  0.385  0.385-   6 2.57  17 2.65  20 2.65  22 2.65
  26  0.615  0.115  0.885-   5 2.57  16 2.65  14 2.65  23 2.65
  27  0.115  0.885  0.615-   7 2.57  24 2.65  15 2.65  19 2.65
  28  0.885  0.615  0.115-   8 2.57  21 2.65  13 2.65  18 2.65
  29  0.135  0.635  0.365-   2 2.57  15 2.65  21 2.65  20 2.65
  30  0.865  0.865  0.865-   1 2.57  18 2.65  19 2.65  23 2.65
  31  0.635  0.365  0.135-   3 2.57  13 2.65  22 2.65  16 2.65
  32  0.365  0.135  0.635-   4 2.57  14 2.65  17 2.65  24 2.65
  33  0.635  0.135  0.365-   4 2.57  11 2.65  16 2.65  22 2.65
  34  0.135  0.365  0.635-   2 2.57  12 2.65  17 2.65  24 2.65
  35  0.365  0.635  0.135-   3 2.57  10 2.65  20 2.65  21 2.65
  36  0.115  0.615  0.885-   7 2.57  21 2.65  12 2.65  18 2.65
  37  0.615  0.885  0.115-   8 2.57  16 2.65  10 2.65  23 2.65
  38  0.885  0.115  0.615-   5 2.57  24 2.65  11 2.65  19 2.65
  39  0.385  0.885  0.885-   7 2.57  10 2.65  14 2.65  23 2.65
  40  0.615  0.615  0.385-   8 2.57  20 2.65  22 2.65   9 2.65
  41  0.115  0.385  0.115-   6 2.57  12 2.65  13 2.65  21 2.65
  42  0.135  0.135  0.865-   1 2.57  24 2.65  14 2.65  12 2.65
  43  0.865  0.365  0.365-   2 2.57  22 2.65  13 2.65  11 2.65
  44  0.635  0.865  0.635-   4 2.57  19 2.65  23 2.65   9 2.65
  45  0.635  0.635  0.865-   3 2.57  18 2.65  23 2.65   9 2.65
  46  0.135  0.865  0.135-   1 2.57  21 2.65  15 2.65  10 2.65
  47  0.115  0.115  0.385-   6 2.57  11 2.65  15 2.65  24 2.65
  48  0.615  0.385  0.615-   5 2.57  22 2.65  17 2.65   9 2.65
  49  0.885  0.385  0.885-   5 2.57  12 2.65  13 2.65  18 2.65
  50  0.385  0.615  0.615-   7 2.57  20 2.65  17 2.65   9 2.65
  51  0.365  0.865  0.365-   4 2.57  20 2.65  15 2.65  10 2.65
  52  0.865  0.135  0.135-   1 2.57  16 2.65  13 2.65  11 2.65
  53  0.865  0.635  0.635-   2 2.57  18 2.65  19 2.65   9 2.65
  54  0.385  0.115  0.115-   6 2.57  14 2.65  10 2.65  16 2.65
  55  0.885  0.885  0.385-   8 2.57  11 2.65  15 2.65  19 2.65
  56  0.365  0.365  0.865-   3 2.57  17 2.65  14 2.65  12 2.65
 
  LATTYP: Found a simple cubic cell.
 ALAT       =    11.0223536917
  
  Lattice vectors:
  
 A1 = (  11.0223536917,   0.0000000000,   0.0000000000)
 A2 = (   0.0000000000,  11.0223536917,   0.0000000000)
 A3 = (   0.0000000000,   0.0000000000,  11.0223536917)


Analysis of symmetry for initial positions (statically):
=====================================================================
 Subroutine PRICEL returns following result:
 
  LATTYP: Found a face centered cubic cell.
 ALAT       =    11.0223536917
  
  Lattice vectors:
  
 A1 = (   5.5111768458,   5.5111768458,   0.0000000000)
 A2 = (   5.5111768458,   0.0000000000,  -5.5111768458)
 A3 = (   0.0000000000,   5.5111768458,  -5.5111768458)
 
   4 primitive cells build up your supercell.
 

 Routine SETGRP: Setting up the symmetry group for a 
 simple cubic supercell.


 Subroutine GETGRP returns: Found 48 space group operations
 (whereof 24 operations were pure point group operations)
 out of a pool of 48 trial point group operations.


The static configuration has the point symmetry T_d .
 The point group associated with its full space group is O_h .


Analysis of symmetry for dynamics (positions and initial velocities):
=====================================================================
 Subroutine PRICEL returns following result:
 
  LATTYP: Found a face centered cubic cell.
 ALAT       =    11.0223536917
  
  Lattice vectors:
  
 A1 = (   5.5111768458,   5.5111768458,   0.0000000000)
 A2 = (   5.5111768458,   0.0000000000,  -5.5111768458)
 A3 = (   0.0000000000,   5.5111768458,  -5.5111768458)
 
   4 primitive cells build up your supercell.
 

 Routine SETGRP: Setting up the symmetry group for a 
 simple cubic supercell.


 Subroutine GETGRP returns: Found 48 space group operations
 (whereof 24 operations were pure point group operations)
 out of a pool of 48 trial point group operations.


The dynamic configuration has the point symmetry T_d .
 The point group associated with its full space group is O_h .
 
 
 KPOINTS: Automatic mesh                          

Automatic generation of k-mesh.
Space group operators:
 irot       det(A)        alpha          n_x          n_y          n_z        tau_x        tau_y        tau_z
    1     1.000000     0.000001     1.000000     0.000000     0.000000     0.000000     0.000000     0.000000
    2     1.000000   120.000000    -0.577350    -0.577350    -0.577350     0.000000     0.000000     0.000000
    3     1.000000   120.000000     0.577350     0.577350     0.577350     0.000000     0.000000     0.000000
    4    -1.000000    90.000000     0.000000     0.000000    -1.000000     0.000000     0.000000     0.000000
    5    -1.000000   180.000000     0.000000     0.707107     0.707107     0.000000     0.000000     0.000000
    6    -1.000000    90.000000     0.000000     1.000000     0.000000     0.000000     0.000000     0.000000
    7     1.000000   180.000000     0.000000     0.000000     1.000000     0.000000     0.000000     0.000000
    8     1.000000   120.000000    -0.577350     0.577350     0.577350     0.000000     0.000000     0.000000
    9     1.000000   120.000000    -0.577350     0.577350    -0.577350     0.000000     0.000000     0.000000
   10    -1.000000    90.000000     0.000000     0.000000     1.000000     0.000000     0.000000     0.000000
   11    -1.000000    90.000000    -1.000000     0.000000     0.000000     0.000000     0.000000     0.000000
   12    -1.000000   180.000000     0.707107     0.000000     0.707107     0.000000     0.000000     0.000000
   13     1.000000   120.000000     0.577350    -0.577350     0.577350     0.000000     0.000000     0.000000
   14     1.000000   120.000000    -0.577350    -0.577350     0.577350     0.000000     0.000000     0.000000
   15     1.000000   180.000000     1.000000     0.000000     0.000000     0.000000     0.000000     0.000000
   16    -1.000000    90.000000     0.000000    -1.000000     0.000000     0.000000     0.000000     0.000000
   17    -1.000000   180.000000     0.707107     0.707107     0.000000     0.000000     0.000000     0.000000
   18    -1.000000    90.000000     1.000000     0.000000     0.000000     0.000000     0.000000     0.000000
   19     1.000000   120.000000     0.577350    -0.577350    -0.577350     0.000000     0.000000     0.000000
   20     1.000000   180.000000     0.000000     1.000000     0.000000     0.000000     0.000000     0.000000
   21     1.000000   120.000000     0.577350     0.577350    -0.577350     0.000000     0.000000     0.000000
   22    -1.000000   180.000000     0.000000    -0.707107     0.707107     0.000000     0.000000     0.000000
   23    -1.000000   180.000000     0.707107    -0.707107     0.000000     0.000000     0.000000     0.000000
   24    -1.000000   180.000000     0.707107     0.000000    -0.707107     0.000000     0.000000     0.000000
   25    -1.000000     0.000001     1.000000     0.000000     0.000000     0.750000     0.750000    -0.750000
   26    -1.000000   120.000000    -0.577350    -0.577350    -0.577350     0.750000     0.750000    -0.750000
   27    -1.000000   120.000000     0.577350     0.577350     0.577350     0.750000     0.750000    -0.750000
   28     1.000000    90.000000     0.000000     0.000000    -1.000000     0.750000     0.750000    -0.750000
   29     1.000000   180.000000     0.000000     0.707107     0.707107     0.750000     0.750000    -0.750000
   30     1.000000    90.000000     0.000000     1.000000     0.000000     0.750000     0.750000    -0.750000
   31    -1.000000   180.000000     0.000000     0.000000     1.000000     0.750000     0.750000    -0.750000
   32    -1.000000   120.000000    -0.577350     0.577350     0.577350     0.750000     0.750000    -0.750000
   33    -1.000000   120.000000    -0.577350     0.577350    -0.577350     0.750000     0.750000    -0.750000
   34     1.000000    90.000000     0.000000     0.000000     1.000000     0.750000     0.750000    -0.750000
   35     1.000000    90.000000    -1.000000     0.000000     0.000000     0.750000     0.750000    -0.750000
   36     1.000000   180.000000     0.707107     0.000000     0.707107     0.750000     0.750000    -0.750000
   37    -1.000000   120.000000     0.577350    -0.577350     0.577350     0.750000     0.750000    -0.750000
   38    -1.000000   120.000000    -0.577350    -0.577350     0.577350     0.750000     0.750000    -0.750000
   39    -1.000000   180.000000     1.000000     0.000000     0.000000     0.750000     0.750000    -0.750000
   40     1.000000    90.000000     0.000000    -1.000000     0.000000     0.750000     0.750000    -0.750000
   41     1.000000   180.000000     0.707107     0.707107     0.000000     0.750000     0.750000    -0.750000
   42     1.000000    90.000000     1.000000     0.000000     0.000000     0.750000     0.750000    -0.750000
   43    -1.000000   120.000000     0.577350    -0.577350    -0.577350     0.750000     0.750000    -0.750000
   44    -1.000000   180.000000     0.000000     1.000000     0.000000     0.750000     0.750000    -0.750000
   45    -1.000000   120.000000     0.577350     0.577350    -0.577350     0.750000     0.750000    -0.750000
   46     1.000000   180.000000     0.000000    -0.707107     0.707107     0.750000     0.750000    -0.750000
   47     1.000000   180.000000     0.707107    -0.707107     0.000000     0.750000     0.750000    -0.750000
   48     1.000000   180.000000     0.707107     0.000000    -0.707107     0.750000     0.750000    -0.750000
 
 Subroutine IBZKPT returns following result:
 ===========================================
 
 Found      4 irreducible k-points:
 
 Following reciprocal coordinates:
            Coordinates               Weight
  0.000000  0.000000  0.000000      1.000000
  0.500000  0.000000  0.000000      3.000000
  0.500000  0.500000  0.000000      3.000000
  0.500000  0.500000  0.500000      1.000000
 
 Following cartesian coordinates:
            Coordinates               Weight
  0.000000  0.000000  0.000000      1.000000
  0.045362  0.000000  0.000000      3.000000
  0.045362  0.045362  0.000000      3.000000
  0.045362  0.045362  0.045362      1.000000
 
 TETIRR: Found      4 inequivalent tetrahedra from       48
 
 Subroutine IBZKPT_HF returns following result:
 ==============================================
 
 Found      8 k-points in 1st BZ
 the following      8 k-points will be used (e.g. in the exchange kernel)
 Following reciprocal coordinates:   # in IRBZ
  0.000000  0.000000  0.000000       1 t-inv F
  0.500000  0.000000  0.000000       2 t-inv F
  0.500000  0.500000  0.000000       3 t-inv F
  0.500000  0.500000  0.500000       4 t-inv F
  0.000000  0.500000  0.000000       2 t-inv F
  0.000000  0.000000  0.500000       2 t-inv F
  0.000000  0.500000  0.500000       3 t-inv F
  0.500000  0.000000  0.500000       3 t-inv F


--------------------------------------------------------------------------------------------------------




 Dimension of arrays:
   k-points           NKPTS =      4   k-points in BZ     NKDIM =      8   number of bands    NBANDS=    304
   number of dos      NEDOS =   1601   number of ions     NIONS =     56
   non local maximal  LDIM  =      6   non local SUM 2l+1 LMDIM =     18
   total plane-waves  NPLWV = 729000
   max r-space proj   IRMAX =      1   max aug-charges    IRDMAX=  23711
   dimension x,y,z NGX =    90 NGY =   90 NGZ =   90
   dimension x,y,z NGXF=   180 NGYF=  180 NGZF=  180
   support grid    NGXF=   180 NGYF=  180 NGZF=  180
   ions per type =               8  16  32
 NGX,Y,Z   is equivalent  to a cutoff of  13.57, 13.57, 13.57 a.u.
 NGXF,Y,Z  is equivalent  to a cutoff of  27.15, 27.15, 27.15 a.u.


 I would recommend the setting:
   dimension x,y,z NGX =    88 NGY =   88 NGZ =   88
 SYSTEM =  CdIn2S4                                 
 POSCAR =  Cd In2 S4                               

 Startparameter for this run:
   NWRITE =      2    write-flag & timer
   PREC   = accura    normal or accurate (medium, high low for compatibility)
   ISTART =      0    job   : 0-new  1-cont  2-samecut
   ICHARG =      2    charge: 1-file 2-atom 10-const
   ISPIN  =      1    spin polarized calculation?
   LNONCOLLINEAR =      F non collinear calculations
   LSORBIT =      F    spin-orbit coupling
   INIWAV =      1    electr: 0-lowe 1-rand  2-diag
   LASPH  =      T    aspherical Exc in radial PAW
   METAGGA=      F    non-selfconsistent MetaGGA calc.

 Electronic Relaxation 1
   ENCUT  =  600.0 eV  44.10 Ry    6.64 a.u.  22.01 22.01 22.01*2*pi/ulx,y,z
   ENINI  =  600.0     initial cutoff
   ENAUG  =  456.1 eV  augmentation charge cutoff
   NELM   =     60;   NELMIN=  2; NELMDL= -5     # of ELM steps 
   EDIFF  = 0.1E-03   stopping-criterion for ELM
   LREAL  =      F    real-space projection
   NLSPLINE    = F    spline interpolate recip. space projectors
   LCOMPAT=      F    compatible to vasp.4.4
   GGA_COMPAT  = T    GGA compatible to vasp.4.4-vasp.4.6
   LMAXPAW     = -100 max onsite density
   LMAXMIX     =    2 max onsite mixed and CHGCAR
   VOSKOWN=      0    Vosko Wilk Nusair interpolation
   ROPT   =    0.00000   0.00000   0.00000
 Ionic relaxation
   EDIFFG = 0.1E-02   stopping-criterion for IOM
   NSW    =      0    number of steps for IOM
   NBLOCK =      1;   KBLOCK =      1    inner block; outer block 
   IBRION =     -1    ionic relax: 0-MD 1-quasi-New 2-CG
   NFREE  =      1    steps in history (QN), initial steepest desc. (CG)
   ISIF   =      0    stress and relaxation
   IWAVPR =     10    prediction:  0-non 1-charg 2-wave 3-comb
   ISYM   =      3    0-nonsym 1-usesym 2-fastsym
   LCORR  =      T    Harris-Foulkes like correction to forces

   POTIM  = 0.5000    time-step for ionic-motion
   TEIN   =    0.0    initial temperature
   TEBEG  =    0.0;   TEEND  =   0.0 temperature during run
   SMASS  =  -3.00    Nose mass-parameter (am)
   estimated Nose-frequenzy (Omega)   =  0.10E-29 period in steps =****** mass=  -0.278E-26a.u.
   SCALEE = 1.0000    scale energy and forces
   NPACO  =    256;   APACO  = 16.0  distance and # of slots for P.C.
   PSTRESS=    0.0 pullay stress

  Mass of Ions in am
   POMASS = 112.41114.82 32.07
  Ionic Valenz
   ZVAL   =  12.00 13.00  6.00
  Atomic Wigner-Seitz radii
   RWIGS  =  -1.00 -1.00 -1.00
  virtual crystal weights 
   VCA    =   1.00  1.00  1.00
   NELECT =     496.0000    total number of electrons
   NUPDOWN=      -1.0000    fix difference up-down

 DOS related values:
   EMIN   =  -5.00;   EMAX   = 10.00  energy-range for DOS
   EFERMI =   0.00
   ISMEAR =    -4;   SIGMA  =   0.20  broadening in eV -4-tet -1-fermi 0-gaus

 Electronic relaxation 2 (details)
   IALGO  =     53    algorithm
   LDIAG  =      T    sub-space diagonalisation (order eigenvalues)
   LSUBROT=      F    optimize rotation matrix (better conditioning)
   TURBO    =      0    0=normal 1=particle mesh
   IRESTART =      0    0=no restart 2=restart with 2 vectors
   NREBOOT  =      0    no. of reboots
   NMIN     =      0    reboot dimension
   EREF     =   0.00    reference energy to select bands
   IMIX   =      4    mixing-type and parameters
     AMIX     =   0.40;   BMIX     =  1.00
     AMIX_MAG =   1.60;   BMIX_MAG =  1.00
     AMIN     =   0.10
     WC   =   100.;   INIMIX=   1;  MIXPRE=   1;  MAXMIX= -45

 Intra band minimization:
   WEIMIN = 0.0000     energy-eigenvalue tresh-hold
   EBREAK =  0.82E-07  absolut break condition
   DEPER  =   0.30     relativ break condition  

   TIME   =   0.20     timestep for ELM

  volume/ion in A,a.u.               =      23.91       161.37
  Fermi-wavevector in a.u.,A,eV,Ry     =   1.175694  2.221740 18.806747  1.382257
  Thomas-Fermi vector in A             =   2.312071
 
 Write flags
   LWAVE  =      T    write WAVECAR
   LCHARG =      T    write CHGCAR
   LVTOT  =      F    write LOCPOT, total local potential
   LVHAR  =      F    write LOCPOT, Hartree potential only
   LELF   =      F    write electronic localiz. function (ELF)
   LORBIT =     11    0 simple, 1 ext, 2 COOP (PROOUT)


 Dipole corrections
   LMONO  =      F    monopole corrections only (constant potential shift)
   LDIPOL =      F    correct potential (dipole corrections)
   IDIPOL =      0    1-x, 2-y, 3-z, 4-all directions 
   EPSILON=  1.0000000 bulk dielectric constant

 Exchange correlation treatment:
   GGA     =    --    GGA type
   LEXCH   =     8    internal setting for exchange type
   VOSKOWN=      0    Vosko Wilk Nusair interpolation
   EXXOEP  =     0    0=HF, 1=EXX-LHF (local Hartree Fock) 2=EXX OEP
   LHFCALC =     T    Hartree Fock is set to
   LSYMGRAD=     F    symmetrize gradient (conserves proper symmetry)
   PRECFOCK=fast      Normal, Fast or Accurate (Low or Medium for compatibility)
   LRHFCALC=     F    long range Hartree Fock
   LRSCOR  =     F    long range correlation only (use DFT for short range part)
   LTHOMAS =     F    Thomas Fermi screening in HF
   LMODELHF=     F    short range full HF, long range fraction AEXX
   ENCUT4O =  -1.0   cutoff for four orbital integrals eV
   LMAXFOCK=     4    L truncation for augmentation on plane wave grid
   LMAXFOCKAE=  -1    L truncation for all-electron charge restoration on plane wave grid
   NMAXFOCKAE=   1    number of basis functions for all-electron charge restoration
   LFOCKAEDFT=     F  apply the AE augmentation even for DFT
   NKREDX  =     1    reduce k-point grid by
   NKREDY  =     1    reduce k-point grid by
   NKREDZ  =     1    reduce k-point grid by
   SHIFTRED=     F    shift reduced grid of Gamma
   HFKIDENT=     F    idential grid for each k-point
   ODDONLY =     F    use only odd q-grid points
   EVENONLY=     F    use only even q-grid points
   HFALPHA =   -1.0000 decay constant for conv. correction
   MCALPHA =    0.0000 extent of test-charge in conv. correction in multipole expansion
   AEXX    =    0.2500 exact exchange contribution
   HFSCREEN=    0.0000 screening length (either q_TF or 0.3 A-1)
   HFSCREENC=   0.0000 screening length for correlation (either q_TF or 0.3 A-1)
   HFRCUT  =    0.0000 spherical cutoff for potential kernel
   ALDAX   =    0.7500 LDA exchange part
   AGGAX   =    0.7500 GGA exchange part
   ALDAC   =    1.0000 LDA correlation
   AGGAC   =    1.0000 GGA correlation
   NBANDSGWLOW=     1    first orbital included in HF term
   ENCUTFOCK=  -1.0 apply spherical cutoff to Coloumb kernel
 Linear response parameters
   LEPSILON=     F    determine dielectric tensor
   LRPA    =     F    only Hartree local field effects (RPA)
   LNABLA  =     F    use nabla operator in PAW spheres
   LVEL    =     F    velocity operator in full k-point grid
   LINTERFAST=   F  fast interpolation
   KINTER  =     0    interpolate to denser k-point grid
   CSHIFT  =0.1000    complex shift for real part using Kramers Kronig
   OMEGAMAX=  -1.0    maximum frequency
   DEG_THRESHOLD= 0.2000000E-02 threshold for treating states as degnerate
   RTIME   =    0.100 relaxation time in fs

 Orbital magnetization related:
   ORBITALMAG=     F  switch on orbital magnetization
   LCHIMAG   =     F  perturbation theory with respect to B field
   DQ        =  0.001000  dq finite difference perturbation B field



--------------------------------------------------------------------------------------------------------


 Static calculation
 charge density and potential will be updated during run
 non-spin polarized calculation
 Conjugate gradient for all bands (Freysoldt, et al. PRB 79, 241103 (2009))
 perform sub-space diagonalisation
    before iterative eigenvector-optimisation
 modified Broyden-mixing scheme, WC =      100.0
 initial mixing is a Kerker type mixing with AMIX =  0.4000 and BMIX =      1.0000
 Hartree-type preconditioning will be used
 using additional bands           56
 reciprocal scheme for non local part
 use partial core corrections
 no Harris-corrections to forces 
 use gradient corrections 
 use of overlap-Matrix (Vanderbilt PP)
 Fermi weights with tetrahedron method witout Bloechl corrections


--------------------------------------------------------------------------------------------------------


  energy-cutoff  :      600.00
  volume of cell :     1339.13
      direct lattice vectors                 reciprocal lattice vectors
    11.022353692  0.000000000  0.000000000     0.090724724  0.000000000  0.000000000
     0.000000000 11.022353692  0.000000000     0.000000000  0.090724724  0.000000000
     0.000000000  0.000000000 11.022353692     0.000000000  0.000000000  0.090724724

  length of vectors
    11.022353692 11.022353692 11.022353692     0.090724724  0.090724724  0.090724724


 
 k-points in units of 2pi/SCALE and weight: Automatic mesh                          
   0.00000000  0.00000000  0.00000000       0.125
   0.04536236  0.00000000  0.00000000       0.375
   0.04536236  0.04536236  0.00000000       0.375
   0.04536236  0.04536236  0.04536236       0.125
 
 k-points in reciprocal lattice and weights: Automatic mesh                          
   0.00000000  0.00000000  0.00000000       0.125
   0.50000000  0.00000000  0.00000000       0.375
   0.50000000  0.50000000  0.00000000       0.375
   0.50000000  0.50000000  0.50000000       0.125
 
 position of ions in fractional coordinates (direct lattice) 
   0.00000000  0.00000000  0.00000000
   0.00000000  0.50000000  0.50000000
   0.50000000  0.50000000  0.00000000
   0.50000000  0.00000000  0.50000000
   0.75000000  0.25000000  0.75000000
   0.25000000  0.25000000  0.25000000
   0.25000000  0.75000000  0.75000000
   0.75000000  0.75000000  0.25000000
   0.62500000  0.62500000  0.62500000
   0.37500000  0.87500000  0.12500000
   0.87500000  0.12500000  0.37500000
   0.12500000  0.37500000  0.87500000
   0.87500000  0.37500000  0.12500000
   0.37500000  0.12500000  0.87500000
   0.12500000  0.87500000  0.37500000
   0.62500000  0.12500000  0.12500000
   0.37500000  0.37500000  0.62500000
   0.87500000  0.62500000  0.87500000
   0.87500000  0.87500000  0.62500000
   0.37500000  0.62500000  0.37500000
   0.12500000  0.62500000  0.12500000
   0.62500000  0.37500000  0.37500000
   0.62500000  0.87500000  0.87500000
   0.12500000  0.12500000  0.62500000
   0.38484764  0.38484764  0.38484764
   0.61515233  0.11515236  0.88484767
   0.11515236  0.88484767  0.61515233
   0.88484767  0.61515233  0.11515236
   0.13484764  0.63484767  0.36515236
   0.86515233  0.86515233  0.86515233
   0.63484767  0.36515236  0.13484764
   0.36515236  0.13484764  0.63484767
   0.63484767  0.13484764  0.36515236
   0.13484764  0.36515236  0.63484767
   0.36515236  0.63484767  0.13484764
   0.11515236  0.61515233  0.88484767
   0.61515233  0.88484767  0.11515236
   0.88484767  0.11515236  0.61515233
   0.38484764  0.88484767  0.88484767
   0.61515233  0.61515233  0.38484764
   0.11515236  0.38484764  0.11515236
   0.13484764  0.13484764  0.86515233
   0.86515233  0.36515236  0.36515236
   0.63484767  0.86515233  0.63484767
   0.63484767  0.63484767  0.86515233
   0.13484764  0.86515233  0.13484764
   0.11515236  0.11515236  0.38484764
   0.61515233  0.38484764  0.61515233
   0.88484767  0.38484764  0.88484767
   0.38484764  0.61515233  0.61515233
   0.36515236  0.86515233  0.36515236
   0.86515233  0.13484764  0.13484764
   0.86515233  0.63484767  0.63484767
   0.38484764  0.11515236  0.11515236
   0.88484767  0.88484767  0.38484764
   0.36515236  0.36515236  0.86515233
 
 position of ions in cartesian coordinates  (Angst):
   0.00000000  0.00000000  0.00000000
   0.00000000  5.51117685  5.51117685
   5.51117685  5.51117685  0.00000000
   5.51117685  0.00000000  5.51117685
   8.26676527  2.75558842  8.26676527
   2.75558842  2.75558842  2.75558842
   2.75558842  8.26676527  8.26676527
   8.26676527  8.26676527  2.75558842
   6.88897106  6.88897106  6.88897106
   4.13338263  9.64455948  1.37779421
   9.64455948  1.37779421  4.13338263
   1.37779421  4.13338263  9.64455948
   9.64455948  4.13338263  1.37779421
   4.13338263  1.37779421  9.64455948
   1.37779421  9.64455948  4.13338263
   6.88897106  1.37779421  1.37779421
   4.13338263  4.13338263  6.88897106
   9.64455948  6.88897106  9.64455948
   9.64455948  9.64455948  6.88897106
   4.13338263  6.88897106  4.13338263
   1.37779421  6.88897106  1.37779421
   6.88897106  4.13338263  4.13338263
   6.88897106  9.64455948  9.64455948
   1.37779421  1.37779421  6.88897106
   4.24192676  4.24192676  4.24192676
   6.78042660  1.26925008  9.75310394
   1.26925008  9.75310394  6.78042660
   9.75310394  6.78042660  1.26925008
   1.48633834  6.99751551  4.02483851
   9.53601502  9.53601502  9.53601502
   6.99751551  4.02483851  1.48633834
   4.02483851  1.48633834  6.99751551
   6.99751551  1.48633834  4.02483851
   1.48633834  4.02483851  6.99751551
   4.02483851  6.99751551  1.48633834
   1.26925008  6.78042660  9.75310394
   6.78042660  9.75310394  1.26925008
   9.75310394  1.26925008  6.78042660
   4.24192676  9.75310394  9.75310394
   6.78042660  6.78042660  4.24192676
   1.26925008  4.24192676  1.26925008
   1.48633834  1.48633834  9.53601502
   9.53601502  4.02483851  4.02483851
   6.99751551  9.53601502  6.99751551
   6.99751551  6.99751551  9.53601502
   1.48633834  9.53601502  1.48633834
   1.26925008  1.26925008  4.24192676
   6.78042660  4.24192676  6.78042660
   9.75310394  4.24192676  9.75310394
   4.24192676  6.78042660  6.78042660
   4.02483851  9.53601502  4.02483851
   9.53601502  1.48633834  1.48633834
   9.53601502  6.99751551  6.99751551
   4.24192676  1.26925008  1.26925008
   9.75310394  9.75310394  4.24192676
   4.02483851  4.02483851  9.53601502
 


--------------------------------------------------------------------------------------------------------


 k-point  1 :   0.0000 0.0000 0.0000  plane waves:   44473
 k-point  2 :   0.5000 0.0000 0.0000  plane waves:   44732
 k-point  3 :   0.5000 0.5000 0.0000  plane waves:   44736
 k-point  4 :   0.5000 0.5000 0.5000  plane waves:   44720

 maximum and minimum number of plane-waves per node :     44736    44473

 maximum number of plane-waves:     44736
 maximum index in each direction: 
   IXMAX=   22   IYMAX=   22   IZMAX=   22
   IXMIN=  -22   IYMIN=  -22   IZMIN=  -22

 NGX is ok and might be reduce to  90
 NGY is ok and might be reduce to  90
 NGZ is ok and might be reduce to  90

 serial   3D FFT for wavefunctions
 parallel 3D FFT for charge:
    minimum data exchange during FFTs selected (reduces bandwidth)


 FFT grid for exact exchange (Hartree Fock) 
  NGX = 48; NGY = 48; NGZ = 48

 
 Radii for the augmentation spheres in the non-local exchange
 for species   1 augmentation radius   1.444 (default was   1.070)
       energy cutoff for augmentation   2400.0
 for species   2 augmentation radius   1.454 (default was   1.077)
       energy cutoff for augmentation   2400.0
 for species   3 augmentation radius   1.309 (default was   0.970)
       energy cutoff for augmentation   2400.0

 total amount of memory used by VASP on root node   593808. kBytes
========================================================================

   base      :      30000. kBytes
   nonl-proj :     117387. kBytes
   fftplans  :      28138. kBytes
   grid      :      77379. kBytes
   one-center:        870. kBytes
   HF        :        194. kBytes
   nonlr-proj:       8427. kBytes
   wavefun   :     331413. kBytes
 
     INWAV:  cpu time    0.00: real time    0.00
 Broyden mixing: mesh for mixing (old mesh)
   NGX = 45   NGY = 45   NGZ = 45
  (NGX  =180   NGY  =180   NGZ  =180)
  gives a total of  91125 points

 initial charge density was supplied:
 charge density of overlapping atoms calculated
 number of electron     496.0000000 magnetization 
 keeping initial charge density in first step


--------------------------------------------------------------------------------------------------------


 BZINTS: Fermi energy:360.535638;496.000000 electrons
         Band energy:***********;  BLOECHL correction:  0.000000
 Maximum index for augmentation-charges         3277 (set IRDMAX)


--------------------------------------------------------------------------------------------------------


 FEWALD executed in parallel
    FEWALD:  cpu time    0.00: real time    0.01

 ----------------------------------------------------------------------------- 
|                                                                             |
|           W    W    AA    RRRRR   N    N  II  N    N   GGGG   !!!           |
|           W    W   A  A   R    R  NN   N  II  NN   N  G    G  !!!           |
|           W    W  A    A  R    R  N N  N  II  N N  N  G       !!!           |
|           W WW W  AAAAAA  RRRRR   N  N N  II  N  N N  G  GGG   !            |
|           WW  WW  A    A  R   R   N   NN  II  N   NN  G    G                |
|           W    W  A    A  R    R  N    N  II  N    N   GGGG   !!!           |
|                                                                             |
|      ALGO=A and IALGO=5X tend to fail with the tetrahedron method           |
|      (e.g. Bloechls method ISMEAR=-5 is not variational)                    |
|      please switch to IMSEAR=0-n, except for DOS calculations               |
|      For DOS calculations use IALGO=53 after preconverging with ISMEAR>=0   |
|          I HOPE YOU KNOW, WHAT YOU ARE  DOING                               |
|                                                                             |
 ----------------------------------------------------------------------------- 



----------------------------------------- Iteration    1(   1)  ---------------------------------------


    POTLOK:  cpu time    1.46: real time    1.46
    SETDIJ:  cpu time    1.67: real time    1.67
 BZINTS: Fermi energy:309.332995;496.000000 electrons
         Band energy:***********;  BLOECHL correction:  0.000000
    TRIAL :  cpu time  415.56: real time  416.53
 BZINTS: Fermi energy:309.332995;496.000000 electrons
         Band energy:***********;  BLOECHL correction:  0.000000
    CORREC:  cpu time    3.05: real time    3.05
    --------------------------------------------
      LOOP:  cpu time  421.87: real time  422.84

 eigenvalue-minimisations  :  2912
 total energy-change (2. order) : 0.6596664E+05  (-0.8316349E+05)
 number of electron     496.0000000 magnetization 
 augmentation part      496.0000000 magnetization 

 Free energy of the ion-electron system (eV)
  ---------------------------------------------------
  alpha Z        PSCENC =      1266.29436605
  Ewald energy   TEWEN  =    -31923.33750361
  -Hartree energ DENC   =    -13461.58557663
  -exchange      EXHF   =         0.00000000
  -V(xc)+E(xc)   XCENC  =       846.08014244
  PAW double counting   =     38867.13193148   -38335.13704195
  entropy T*S    EENTRO =         0.00000000
  eigenvalues    EBANDS =     64367.93971660
  atomic energy  EATOM  =     44339.25053749
  ---------------------------------------------------
  free energy    TOTEN  =     65966.63657186 eV

  energy without entropy =    65966.63657186  energy(sigma->0) =    65966.63657186


--------------------------------------------------------------------------------------------------------




----------------------------------------- Iteration    1(   2)  ---------------------------------------


 BZINTS: Fermi energy: 68.265163;496.000000 electrons
         Band energy:***********;  BLOECHL correction:  0.000000
    TRIAL :  cpu time  702.60: real time  703.66
 BZINTS: Fermi energy: 68.265163;496.000000 electrons
         Band energy:***********;  BLOECHL correction:  0.000000
    CORREC:  cpu time    0.58: real time    0.59
    --------------------------------------------
      LOOP:  cpu time  703.22: real time  704.30

 eigenvalue-minimisations  :  3600
 total energy-change (2. order) :-0.4964204E+05  (-0.4791981E+05)
 number of electron     496.0000000 magnetization 
 augmentation part      496.0000000 magnetization 

 Free energy of the ion-electron system (eV)
  ---------------------------------------------------
  alpha Z        PSCENC =      1266.29436605
  Ewald energy   TEWEN  =    -31923.33750361
  -Hartree energ DENC   =    -13461.58557663
  -exchange      EXHF   =         0.00000000
  -V(xc)+E(xc)   XCENC  =       846.08014244
  PAW double counting   =     38867.13193148   -38335.13704195
  entropy T*S    EENTRO =         0.00000000
  eigenvalues    EBANDS =     14725.89597024
  atomic energy  EATOM  =     44339.25053749
  ---------------------------------------------------
  free energy    TOTEN  =     16324.59282550 eV

  energy without entropy =    16324.59282550  energy(sigma->0) =    16324.59282550


--------------------------------------------------------------------------------------------------------




----------------------------------------- Iteration    1(   3)  ---------------------------------------


 BZINTS: Fermi energy: 29.174244;496.000000 electrons
         Band energy:4383.440775;  BLOECHL correction:  0.000000
    TRIAL :  cpu time  911.15: real time  912.21
 BZINTS: Fermi energy: 29.174244;496.000000 electrons
         Band energy:4383.440775;  BLOECHL correction:  0.000000
    CORREC:  cpu time    0.20: real time    0.20
    --------------------------------------------
      LOOP:  cpu time  911.36: real time  912.43

 eigenvalue-minimisations  :  4160
 total energy-change (2. order) :-0.1034246E+05  (-0.1007061E+05)
 number of electron     496.0000000 magnetization 
 augmentation part      496.0000000 magnetization 

 Free energy of the ion-electron system (eV)
  ---------------------------------------------------
  alpha Z        PSCENC =      1266.29436605
  Ewald energy   TEWEN  =    -31923.33750361
  -Hartree energ DENC   =    -13461.58557663
  -exchange      EXHF   =         0.00000000
  -V(xc)+E(xc)   XCENC  =       846.08014244
  PAW double counting   =     38867.13193148   -38335.13704195
  entropy T*S    EENTRO =         0.00000000
  eigenvalues    EBANDS =      4383.44077525
  atomic energy  EATOM  =     44339.25053749
  ---------------------------------------------------
  free energy    TOTEN  =      5982.13763051 eV

  energy without entropy =     5982.13763051  energy(sigma->0) =     5982.13763051


--------------------------------------------------------------------------------------------------------




----------------------------------------- Iteration    1(   4)  ---------------------------------------


 BZINTS: Fermi energy: 17.089081;496.000000 electrons
         Band energy:1317.384565;  BLOECHL correction:  0.000000
    TRIAL :  cpu time  929.12: real time  929.97
 BZINTS: Fermi energy: 17.089081;496.000000 electrons
         Band energy:1317.384565;  BLOECHL correction:  0.000000
    CORREC:  cpu time    0.08: real time    0.08
    --------------------------------------------
      LOOP:  cpu time  929.20: real time  930.06

 eigenvalue-minimisations  :  4416
 total energy-change (2. order) :-0.3066056E+04  (-0.2929421E+04)
 number of electron     496.0000000 magnetization 
 augmentation part      496.0000000 magnetization 

 Free energy of the ion-electron system (eV)
  ---------------------------------------------------
  alpha Z        PSCENC =      1266.29436605
  Ewald energy   TEWEN  =    -31923.33750361
  -Hartree energ DENC   =    -13461.58557663
  -exchange      EXHF   =         0.00000000
  -V(xc)+E(xc)   XCENC  =       846.08014244
  PAW double counting   =     38867.13193148   -38335.13704195
  entropy T*S    EENTRO =         0.00000000
  eigenvalues    EBANDS =      1317.38456536
  atomic energy  EATOM  =     44339.25053749
  ---------------------------------------------------
  free energy    TOTEN  =      2916.08142062 eV

  energy without entropy =     2916.08142062  energy(sigma->0) =     2916.08142062


--------------------------------------------------------------------------------------------------------




----------------------------------------- Iteration    1(   5)  ---------------------------------------


 BZINTS: Fermi energy: 12.615625;496.000000 electrons
         Band energy: 119.347552;  BLOECHL correction:  0.000000
    TRIAL :  cpu time  879.87: real time  880.76
 BZINTS: Fermi energy: 12.615625;496.000000 electrons
         Band energy: 119.347552;  BLOECHL correction:  0.000000
    CORREC:  cpu time    0.03: real time    0.03
    CHARGE:  cpu time   15.58: real time   15.58
    --------------------------------------------
      LOOP:  cpu time  895.48: real time  896.38

 eigenvalue-minimisations  :  4816
 total energy-change (2. order) :-0.1198037E+04  (-0.1123579E+04)
 number of electron     496.0000044 magnetization 
 augmentation part      144.0873479 magnetization 

 Free energy of the ion-electron system (eV)
  ---------------------------------------------------
  alpha Z        PSCENC =      1266.29436605
  Ewald energy   TEWEN  =    -31923.33750361
  -Hartree energ DENC   =    -13461.58557663
  -exchange      EXHF   =         0.00000000
  -V(xc)+E(xc)   XCENC  =       846.08014244
  PAW double counting   =     38867.13193148   -38335.13704195
  entropy T*S    EENTRO =         0.00000000
  eigenvalues    EBANDS =       119.34755215
  atomic energy  EATOM  =     44339.25053749
  ---------------------------------------------------
  free energy    TOTEN  =      1718.04440741 eV

  energy without entropy =     1718.04440741  energy(sigma->0) =     1718.04440741


--------------------------------------------------------------------------------------------------------




----------------------------------------- Iteration    1(   6)  ---------------------------------------


    POTLOK:  cpu time    1.82: real time    1.83
    SETDIJ:  cpu time    1.62: real time    1.62
    TRIAL :  cpu time11341.75: real time11342.89
 BZINTS: Fermi energy: 12.390625;496.000000 electrons
         Band energy:-119.391766;  BLOECHL correction:  0.000000
    CORREC:  cpu time    0.03: real time    0.03
    CHARGE:  cpu time   20.43: real time   20.43
    --------------------------------------------
      LOOP:  cpu time11365.67: real time11366.81

 eigenvalue-minimisations  :     0
 total energy-change (2. order) :-0.1072530E+04  (-0.3830283E+03)
 number of electron     496.0000044 magnetization 
 augmentation part      143.0487668 magnetization 

 Free energy of the ion-electron system (eV)
  ---------------------------------------------------
  alpha Z        PSCENC =      1266.29436605
  Ewald energy   TEWEN  =    -31923.33750361
  -Hartree energ DENC   =    -12705.90419828
  -exchange      EXHF   =      1130.54689970
  -V(xc)+E(xc)   XCENC  =       817.14291427
  PAW double counting   =    456715.36165386  -456130.12491643
  entropy T*S    EENTRO =         0.00000000
  eigenvalues    EBANDS =     -2863.71572659
  atomic energy  EATOM  =     44339.25053749
  ---------------------------------------------------
  free energy    TOTEN  =       645.51402646 eV

  energy without entropy =      645.51402646  energy(sigma->0) =      645.51402646


--------------------------------------------------------------------------------------------------------




----------------------------------------- Iteration    1(   7)  ---------------------------------------


    POTLOK:  cpu time    2.40: real time    2.40
    SETDIJ:  cpu time    1.77: real time    1.77
    TRIAL :  cpu time14145.74: real time14293.07
 BZINTS: Fermi energy: 11.978125;496.000000 electrons
         Band energy:-475.694336;  BLOECHL correction:  0.000000
    CORREC:  cpu time    0.02: real time    0.02
    CHARGE:  cpu time   19.49: real time   20.36
    --------------------------------------------
      LOOP:  cpu time14169.43: real time14317.64

 eigenvalue-minimisations  :     0
 total energy-change (2. order) :-0.3277322E+03  (-0.3399829E+03)
 number of electron     496.0000043 magnetization 
 augmentation part      141.3779656 magnetization 

 Free energy of the ion-electron system (eV)
  ---------------------------------------------------
  alpha Z        PSCENC =      1266.29436605
  Ewald energy   TEWEN  =    -31923.33750361
  -Hartree energ DENC   =    -12938.71193903
  -exchange      EXHF   =      1166.11010305
  -V(xc)+E(xc)   XCENC  =       829.72843739
  PAW double counting   =    398356.11200090  -397758.66544442
  entropy T*S    EENTRO =         0.00000000
  eigenvalues    EBANDS =     -3018.99875377
  atomic energy  EATOM  =     44339.25053749
  ---------------------------------------------------
  free energy    TOTEN  =       317.78180405 eV

  energy without entropy =      317.78180405  energy(sigma->0) =      317.78180405


--------------------------------------------------------------------------------------------------------




----------------------------------------- Iteration    1(   8)  ---------------------------------------


    POTLOK:  cpu time    3.99: real time    4.01
    SETDIJ:  cpu time    2.58: real time    2.58
    TRIAL :  cpu time15914.60: real time17406.48
 BZINTS: Fermi energy: 11.368750;496.000000 electrons
         Band energy:-872.196386;  BLOECHL correction:  0.000000
    CORREC:  cpu time    0.02: real time    0.03
    CHARGE:  cpu time   24.63: real time   25.95
    --------------------------------------------
      LOOP:  cpu time15945.86: real time17439.12

 eigenvalue-minimisations  :     0
 total energy-change (2. order) :-0.2621572E+03  (-0.1801477E+03)
 number of electron     496.0000043 magnetization 
 augmentation part      139.5431263 magnetization 

 Free energy of the ion-electron system (eV)
  ---------------------------------------------------
  alpha Z        PSCENC =      1266.29436605
  Ewald energy   TEWEN  =    -31923.33750361
  -Hartree energ DENC   =    -13163.83043310
  -exchange      EXHF   =      1201.83424646
  -V(xc)+E(xc)   XCENC  =       842.44733361
  PAW double counting   =    312913.91747019  -312311.46486730
  entropy T*S    EENTRO =         0.00000000
  eigenvalues    EBANDS =     -3109.48651928
  atomic energy  EATOM  =     44339.25053749
  ---------------------------------------------------
  free energy    TOTEN  =        55.62463052 eV

  energy without entropy =       55.62463052  energy(sigma->0) =       55.62463052


--------------------------------------------------------------------------------------------------------




----------------------------------------- Iteration    1(   9)  ---------------------------------------


    POTLOK:  cpu time    3.04: real time    3.93
    SETDIJ:  cpu time    2.47: real time    3.07
    TRIAL :  cpu time11725.02: real time11970.68
 BZINTS: Fermi energy: 10.665625;496.000000 electrons
         Band energy:***********;  BLOECHL correction:  0.000000
    CORREC:  cpu time    0.01: real time    0.01
    CHARGE:  cpu time   12.06: real time   12.06
    --------------------------------------------
      LOOP:  cpu time11742.64: real time11989.83

 eigenvalue-minimisations  :     0
 total energy-change (2. order) :-0.1353812E+03  (-0.9314533E+02)
 number of electron     496.0000042 magnetization 
 augmentation part      138.0004889 magnetization 

 Free energy of the ion-electron system (eV)
  ---------------------------------------------------
  alpha Z        PSCENC =      1266.29436605
  Ewald energy   TEWEN  =    -31923.33750361
  -Hartree energ DENC   =    -13291.57117219
  -exchange      EXHF   =      1225.11207740
  -V(xc)+E(xc)   XCENC  =       850.10182216
  PAW double counting   =    233401.67012738  -232800.38396317
  entropy T*S    EENTRO =         0.00000000
  eigenvalues    EBANDS =     -3146.89289760
  atomic energy  EATOM  =     44339.25053749
  ---------------------------------------------------
  free energy    TOTEN  =       -79.75660610 eV

  energy without entropy =      -79.75660610  energy(sigma->0) =      -79.75660610


--------------------------------------------------------------------------------------------------------




----------------------------------------- Iteration    1(  10)  ---------------------------------------


    POTLOK:  cpu time    2.01: real time    2.04
    SETDIJ:  cpu time    1.66: real time    1.66
    TRIAL :  cpu time10613.52: real time10617.68
 BZINTS: Fermi energy:  9.813672;496.000000 electrons
         Band energy:***********;  BLOECHL correction:  0.000000
    CORREC:  cpu time    0.00: real time    0.00
    CHARGE:  cpu time   12.74: real time   12.75
    --------------------------------------------
      LOOP:  cpu time10629.95: real time10634.16

 eigenvalue-minimisations  :     0
 total energy-change (2. order) :-0.7426326E+02  (-0.5860881E+02)
 number of electron     496.0000042 magnetization 
 augmentation part      137.0714356 magnetization 

 Free energy of the ion-electron system (eV)
  ---------------------------------------------------
  alpha Z        PSCENC =      1266.29436605
  Ewald energy   TEWEN  =    -31923.33750361
  -Hartree energ DENC   =    -13347.90235998
  -exchange      EXHF   =      1239.09429560
  -V(xc)+E(xc)   XCENC  =       853.53955569
  PAW double counting   =    176614.39077609  -176015.07361633
  entropy T*S    EENTRO =         0.00000000
  eigenvalues    EBANDS =     -3180.27591684
  atomic energy  EATOM  =     44339.25053749
  ---------------------------------------------------
  free energy    TOTEN  =      -154.01986586 eV

  energy without entropy =     -154.01986586  energy(sigma->0) =     -154.01986586


--------------------------------------------------------------------------------------------------------




----------------------------------------- Iteration    1(  11)  ---------------------------------------


    POTLOK:  cpu time    2.16: real time    2.16
    SETDIJ:  cpu time    1.70: real time    1.70
    TRIAL :  cpu time 9476.96: real time 9478.37
 BZINTS: Fermi energy:  8.866211;496.000000 electrons
         Band energy:***********;  BLOECHL correction:  0.000000
    CORREC:  cpu time    0.00: real time    0.00
    CHARGE:  cpu time   11.40: real time   11.40
    --------------------------------------------
      LOOP:  cpu time 9492.23: real time 9493.65

 eigenvalue-minimisations  :     0
 total energy-change (2. order) :-0.4844977E+02  (-0.3780883E+02)
 number of electron     496.0000042 magnetization 
 augmentation part      136.6769307 magnetization 

 Free energy of the ion-electron system (eV)
  ---------------------------------------------------
  alpha Z        PSCENC =      1266.29436605
  Ewald energy   TEWEN  =    -31923.33750361
  -Hartree energ DENC   =    -13381.10395115
  -exchange      EXHF   =      1247.77238512
  -V(xc)+E(xc)   XCENC  =       854.95144472
  PAW double counting   =    140356.63605968  -139759.33067884
  entropy T*S    EENTRO =         0.00000000
  eigenvalues    EBANDS =     -3203.60229822
  atomic energy  EATOM  =     44339.25053749
  ---------------------------------------------------
  free energy    TOTEN  =      -202.46963877 eV

  energy without entropy =     -202.46963877  energy(sigma->0) =     -202.46963877


--------------------------------------------------------------------------------------------------------




----------------------------------------- Iteration    1(  12)  ---------------------------------------


    POTLOK:  cpu time    1.72: real time    1.72
    SETDIJ:  cpu time    1.65: real time    1.65
    TRIAL :  cpu time10268.63: real time10269.55
 BZINTS: Fermi energy:  7.863086;496.000000 electrons
         Band energy:***********;  BLOECHL correction:  0.000000
    CORREC:  cpu time    0.00: real time    0.00
    CHARGE:  cpu time   24.37: real time   24.45
    --------------------------------------------
      LOOP:  cpu time10296.38: real time10297.38

 eigenvalue-minimisations  :     0
 total energy-change (2. order) :-0.3094598E+02  (-0.2299176E+02)
 number of electron     496.0000042 magnetization 
 augmentation part      136.5210589 magnetization 

 Free energy of the ion-electron system (eV)
  ---------------------------------------------------
  alpha Z        PSCENC =      1266.29436605
  Ewald energy   TEWEN  =    -31923.33750361
  -Hartree energ DENC   =    -13409.97442836
  -exchange      EXHF   =      1252.89031340
  -V(xc)+E(xc)   XCENC  =       855.57311539
  PAW double counting   =    117833.34391456  -117238.54805493
  entropy T*S    EENTRO =         0.00000000
  eigenvalues    EBANDS =     -3208.90787587
  atomic energy  EATOM  =     44339.25053749
  ---------------------------------------------------
  free energy    TOTEN  =      -233.41561587 eV

  energy without entropy =     -233.41561587  energy(sigma->0) =     -233.41561587


--------------------------------------------------------------------------------------------------------




----------------------------------------- Iteration    1(  13)  ---------------------------------------


    POTLOK:  cpu time    1.97: real time    1.97
    SETDIJ:  cpu time    1.68: real time    1.68
    TRIAL :  cpu time10501.50: real time10502.44
 BZINTS: Fermi energy:  6.869336;496.000000 electrons
         Band energy:***********;  BLOECHL correction:  0.000000
    CORREC:  cpu time    0.00: real time    0.00
    CHARGE:  cpu time   12.19: real time   12.19
    --------------------------------------------
      LOOP:  cpu time10517.35: real time10518.31

 eigenvalue-minimisations  :     0
 total energy-change (2. order) :-0.1903715E+02  (-0.1423291E+02)
 number of electron     496.0000042 magnetization 
 augmentation part      136.4114859 magnetization 

 Free energy of the ion-electron system (eV)
  ---------------------------------------------------
  alpha Z        PSCENC =      1266.29436605
  Ewald energy   TEWEN  =    -31923.33750361
  -Hartree energ DENC   =    -13429.88248198
  -exchange      EXHF   =      1255.75244253
  -V(xc)+E(xc)   XCENC  =       855.81272181
  PAW double counting   =    103775.13858867  -103182.18752938
  entropy T*S    EENTRO =         0.00000000
  eigenvalues    EBANDS =     -3209.29390951
  atomic energy  EATOM  =     44339.25053749
  ---------------------------------------------------
  free energy    TOTEN  =      -252.45276795 eV

  energy without entropy =     -252.45276795  energy(sigma->0) =     -252.45276795


--------------------------------------------------------------------------------------------------------




----------------------------------------- Iteration    1(  14)  ---------------------------------------


    POTLOK:  cpu time    2.24: real time    2.24
    SETDIJ:  cpu time    1.68: real time    1.68
    TRIAL :  cpu time10135.95: real time10136.79
 BZINTS: Fermi energy:  5.951172;496.000000 electrons
         Band energy:***********;  BLOECHL correction:  0.000000
    CORREC:  cpu time    0.00: real time    0.00
    CHARGE:  cpu time   11.33: real time   11.33
    --------------------------------------------
      LOOP:  cpu time10151.22: real time10152.07

 eigenvalue-minimisations  :     0
 total energy-change (2. order) :-0.1199821E+02  (-0.8828938E+01)
 number of electron     496.0000042 magnetization 
 augmentation part      136.3106672 magnetization 

 Free energy of the ion-electron system (eV)
  ---------------------------------------------------
  alpha Z        PSCENC =      1266.29436605
  Ewald energy   TEWEN  =    -31923.33750361
  -Hartree energ DENC   =    -13438.01653851
  -exchange      EXHF   =      1257.43285379
  -V(xc)+E(xc)   XCENC  =       855.86013568
  PAW double counting   =     94920.13229166   -94327.59925232
  entropy T*S    EENTRO =         0.00000000
  eigenvalues    EBANDS =     -3214.46786547
  atomic energy  EATOM  =     44339.25053749
  ---------------------------------------------------
  free energy    TOTEN  =      -264.45097525 eV

  energy without entropy =     -264.45097525  energy(sigma->0) =     -264.45097525


--------------------------------------------------------------------------------------------------------




----------------------------------------- Iteration    1(  15)  ---------------------------------------


    POTLOK:  cpu time    1.83: real time    1.83
    SETDIJ:  cpu time    1.63: real time    1.63
    TRIAL :  cpu time 9825.26: real time 9826.81
 BZINTS: Fermi energy:  5.154297;496.000000 electrons
         Band energy:***********;  BLOECHL correction:  0.000000
    CORREC:  cpu time    0.00: real time    0.00
    CHARGE:  cpu time   13.71: real time   13.71
    --------------------------------------------
      LOOP:  cpu time 9842.44: real time 9844.00

 eigenvalue-minimisations  :     0
 total energy-change (2. order) :-0.7434441E+01  (-0.5188843E+01)
 number of electron     496.0000042 magnetization 
 augmentation part      136.2511324 magnetization 

 Free energy of the ion-electron system (eV)
  ---------------------------------------------------
  alpha Z        PSCENC =      1266.29436605
  Ewald energy   TEWEN  =    -31923.33750361
  -Hartree energ DENC   =    -13439.43519254
  -exchange      EXHF   =      1258.51293375
  -V(xc)+E(xc)   XCENC  =       855.86510906
  PAW double counting   =     89303.11118048   -88710.11280223
  entropy T*S    EENTRO =         0.00000000
  eigenvalues    EBANDS =     -3222.03404446
  atomic energy  EATOM  =     44339.25053749
  ---------------------------------------------------
  free energy    TOTEN  =      -271.88541601 eV

  energy without entropy =     -271.88541601  energy(sigma->0) =     -271.88541601


--------------------------------------------------------------------------------------------------------




----------------------------------------- Iteration    1(  16)  ---------------------------------------


    POTLOK:  cpu time    1.90: real time    1.89
    SETDIJ:  cpu time    1.64: real time    1.64
    TRIAL :  cpu time10578.02: real time10579.35
 BZINTS: Fermi energy:  4.488086;496.000000 electrons
         Band energy:***********;  BLOECHL correction:  0.000000
    CORREC:  cpu time    0.00: real time    0.00
    CHARGE:  cpu time   11.63: real time   11.63
    --------------------------------------------
      LOOP:  cpu time10593.19: real time10594.53

 eigenvalue-minimisations  :     0
 total energy-change (2. order) :-0.4354974E+01  (-0.2979802E+01)
 number of electron     496.0000042 magnetization 
 augmentation part      136.2432118 magnetization 

 Free energy of the ion-electron system (eV)
  ---------------------------------------------------
  alpha Z        PSCENC =      1266.29436605
  Ewald energy   TEWEN  =    -31923.33750361
  -Hartree energ DENC   =    -13441.14278697
  -exchange      EXHF   =      1259.26890168
  -V(xc)+E(xc)   XCENC  =       855.93696677
  PAW double counting   =     85727.70237394   -85134.18841698
  entropy T*S    EENTRO =         0.00000000
  eigenvalues    EBANDS =     -3226.02482882
  atomic energy  EATOM  =     44339.25053749
  ---------------------------------------------------
  free energy    TOTEN  =      -276.24039046 eV

  energy without entropy =     -276.24039046  energy(sigma->0) =     -276.24039046


--------------------------------------------------------------------------------------------------------




----------------------------------------- Iteration    1(  17)  ---------------------------------------


    POTLOK:  cpu time    2.32: real time    2.32
    SETDIJ:  cpu time    1.64: real time    1.64
    TRIAL :  cpu time10848.81: real time10851.61
 BZINTS: Fermi energy:  3.935547;496.000000 electrons
         Band energy:***********;  BLOECHL correction:  0.000000
    CORREC:  cpu time    0.00: real time    0.00
    CHARGE:  cpu time   12.12: real time   12.12
    --------------------------------------------
      LOOP:  cpu time10864.90: real time10867.70

 eigenvalue-minimisations  :     0
 total energy-change (2. order) :-0.2527426E+01  (-0.1778086E+01)
 number of electron     496.0000042 magnetization 
 augmentation part      136.2585911 magnetization 

 Free energy of the ion-electron system (eV)
  ---------------------------------------------------
  alpha Z        PSCENC =      1266.29436605
  Ewald energy   TEWEN  =    -31923.33750361
  -Hartree energ DENC   =    -13445.51536918
  -exchange      EXHF   =      1259.80250852
  -V(xc)+E(xc)   XCENC  =       856.07227673
  PAW double counting   =     83455.27830465   -82861.58719395
  entropy T*S    EENTRO =         0.00000000
  eigenvalues    EBANDS =     -3225.02574334
  atomic energy  EATOM  =     44339.25053749
  ---------------------------------------------------
  free energy    TOTEN  =      -278.76781664 eV

  energy without entropy =     -278.76781664  energy(sigma->0) =     -278.76781664


--------------------------------------------------------------------------------------------------------




----------------------------------------- Iteration    1(  18)  ---------------------------------------


    POTLOK:  cpu time    2.08: real time    2.08
    SETDIJ:  cpu time    1.69: real time    1.69
    TRIAL :  cpu time 9923.30: real time 9924.63
 BZINTS: Fermi energy:  3.496094;496.000000 electrons
         Band energy:***********;  BLOECHL correction:  0.000000
    CORREC:  cpu time    0.00: real time    0.00
    CHARGE:  cpu time   10.76: real time   10.76
    --------------------------------------------
      LOOP:  cpu time 9937.84: real time 9939.18

 eigenvalue-minimisations  :     0
 total energy-change (2. order) :-0.1528059E+01  (-0.1097899E+01)
 number of electron     496.0000042 magnetization 
 augmentation part      136.2668012 magnetization 

 Free energy of the ion-electron system (eV)
  ---------------------------------------------------
  alpha Z        PSCENC =      1266.29436605
  Ewald energy   TEWEN  =    -31923.33750361
  -Hartree energ DENC   =    -13450.38938690
  -exchange      EXHF   =      1260.12746592
  -V(xc)+E(xc)   XCENC  =       856.18712307
  PAW double counting   =     82015.99114517   -81422.43791573
  entropy T*S    EENTRO =         0.00000000
  eigenvalues    EBANDS =     -3221.98170718
  atomic energy  EATOM  =     44339.25053749
  ---------------------------------------------------
  free energy    TOTEN  =      -280.29587573 eV

  energy without entropy =     -280.29587573  energy(sigma->0) =     -280.29587573


--------------------------------------------------------------------------------------------------------




----------------------------------------- Iteration    1(  19)  ---------------------------------------


    POTLOK:  cpu time    1.92: real time    1.92
    SETDIJ:  cpu time    1.66: real time    1.65
    TRIAL :  cpu time 9786.84: real time 9788.37
 BZINTS: Fermi energy:  3.158594;496.000000 electrons
         Band energy:***********;  BLOECHL correction:  0.000000
    CORREC:  cpu time    0.00: real time    0.00
    CHARGE:  cpu time   11.64: real time   11.74
    --------------------------------------------
      LOOP:  cpu time 9802.08: real time 9803.71

 eigenvalue-minimisations  :     0
 total energy-change (2. order) :-0.9446233E+00  (-0.6833901E+00)
 number of electron     496.0000042 magnetization 
 augmentation part      136.2553093 magnetization 

 Free energy of the ion-electron system (eV)
  ---------------------------------------------------
  alpha Z        PSCENC =      1266.29436605
  Ewald energy   TEWEN  =    -31923.33750361
  -Hartree energ DENC   =    -13453.39171088
  -exchange      EXHF   =      1260.26881257
  -V(xc)+E(xc)   XCENC  =       856.22626429
  PAW double counting   =     81102.12043942   -80508.84360304
  entropy T*S    EENTRO =         0.00000000
  eigenvalues    EBANDS =     -3219.82810136
  atomic energy  EATOM  =     44339.25053749
  ---------------------------------------------------
  free energy    TOTEN  =      -281.24049907 eV

  energy without entropy =     -281.24049907  energy(sigma->0) =     -281.24049907


--------------------------------------------------------------------------------------------------------




[...]
 -0.000  -0.000   0.000   0.000  -0.785   0.000   0.000   0.000  -0.000   0.654   0.000  -0.000   0.000  -0.000  -0.000  -0.000
  0.000   0.000  -0.000   0.000  -0.000  -0.000  -0.000   0.000  -0.000   0.000   5.660  -2.262   0.000   0.000   0.000  -0.000
  0.000   0.000   0.000  -0.000   0.000   0.000  -0.000  -0.000   0.000  -0.000  -2.262   0.918  -0.000  -0.000  -0.000   0.000
  0.000   0.000  -0.000   0.664  -0.000  -0.000  -0.000   0.000  -0.643   0.000   0.000  -0.000   0.243  -0.000   0.000  -0.066
  0.664   0.000   0.000   0.000   0.000  -0.643  -0.000  -0.000  -0.000  -0.000   0.000  -0.000  -0.000   0.243   0.000   0.000
  0.000   0.664  -0.000   0.000   0.000  -0.000  -0.643   0.000  -0.000  -0.000   0.000  -0.000   0.000   0.000   0.243  -0.000
 -0.000  -0.000   0.000  -0.154   0.000   0.000   0.000  -0.000   0.174  -0.000  -0.000   0.000  -0.066   0.000  -0.000   0.019
 -0.154  -0.000  -0.000  -0.000  -0.000   0.174   0.000   0.000   0.000   0.000  -0.000   0.000  -0.000  -0.066  -0.000   0.000
 -0.000  -0.154   0.000  -0.000  -0.000   0.000   0.174  -0.000   0.000   0.000  -0.000   0.000  -0.000  -0.000  -0.066   0.000


------------------------ aborting loop because EDIFF is reached ----------------------------------------


 


 total charge     
 
# of ion     s       p       d       tot
----------------------------------------
  1        0.379   0.281   9.605  10.265
  2        0.379   0.281   9.605  10.265
  3        0.379   0.281   9.605  10.265
  4        0.379   0.281   9.605  10.265
  5        0.379   0.281   9.605  10.265
  6        0.379   0.281   9.605  10.265
  7        0.379   0.281   9.605  10.265
  8        0.379   0.281   9.605  10.265
  9        0.712   0.597   9.965  11.275
 10        0.713   0.597   9.965  11.275
 11        0.713   0.597   9.965  11.275
 12        0.713   0.597   9.965  11.275
 13        0.713   0.597   9.965  11.275
 14        0.713   0.597   9.965  11.275
 15        0.712   0.597   9.965  11.275
 16        0.712   0.597   9.965  11.275
 17        0.713   0.597   9.965  11.275
 18        0.713   0.597   9.965  11.275
 19        0.712   0.597   9.965  11.275
 20        0.712   0.597   9.965  11.275
 21        0.712   0.597   9.965  11.275
 22        0.712   0.597   9.965  11.275
 23        0.713   0.597   9.965  11.275
 24        0.712   0.597   9.965  11.275
 25        1.326   2.406   0.000   3.732
 26        1.326   2.406   0.000   3.732
 27        1.326   2.406   0.000   3.732
 28        1.326   2.406   0.000   3.732
 29        1.326   2.406   0.000   3.732
 30        1.326   2.406   0.000   3.732
 31        1.326   2.406   0.000   3.732
 32        1.326   2.406   0.000   3.732
 33        1.326   2.406   0.000   3.732
 34        1.326   2.406   0.000   3.732
 35        1.326   2.406   0.000   3.732
 36        1.326   2.406   0.000   3.732
 37        1.326   2.406   0.000   3.732
 38        1.326   2.406   0.000   3.732
 39        1.326   2.406   0.000   3.732
 40        1.326   2.406   0.000   3.732
 41        1.326   2.406   0.000   3.732
 42        1.326   2.406   0.000   3.732
 43        1.326   2.406   0.000   3.732
 44        1.326   2.406   0.000   3.732
 45        1.326   2.406   0.000   3.732
 46        1.326   2.406   0.000   3.732
 47        1.326   2.406   0.000   3.732
 48        1.326   2.406   0.000   3.732
 49        1.326   2.406   0.000   3.732
 50        1.326   2.406   0.000   3.732
 51        1.326   2.406   0.000   3.732
 52        1.326   2.406   0.000   3.732
 53        1.326   2.406   0.000   3.732
 54        1.326   2.406   0.000   3.732
 55        1.326   2.406   0.000   3.732
 56        1.326   2.406   0.000   3.732
------------------------------------------------
tot       56.871  88.788 236.278 381.936
 
    FORLOC:  cpu time    0.74: real time    0.74
    FORHF :  cpu time16882.90: real time16883.83
    FORNL :  cpu time  157.30: real time  157.31
    FORCOR:  cpu time    4.33: real time    4.33
    OFIELD:  cpu time    0.01: real time    0.01

 VOLUME and BASIS-vectors are now :
 -----------------------------------------------------------------------------
  energy-cutoff  :      600.00
  volume of cell :     1339.13
      direct lattice vectors                 reciprocal lattice vectors
    11.022353692  0.000000000  0.000000000     0.090724724  0.000000000  0.000000000
     0.000000000 11.022353692  0.000000000     0.000000000  0.090724724  0.000000000
     0.000000000  0.000000000 11.022353692     0.000000000  0.000000000  0.090724724

  length of vectors
    11.022353692 11.022353692 11.022353692     0.090724724  0.090724724  0.090724724


 FORCES acting on ions:
    Electron-Ion                     Ewald-Force                    Non-Local-Force
 -----------------------------------------------------------------------------------------------
   0.274E-03 0.413E-03 0.432E-03   -.183E-04 -.183E-04 -.183E-04   0.127E-20 0.424E-21 0.296E-20
   0.281E-03 0.662E-03 -.127E-03   -.183E-04 0.182E-04 0.182E-04   -.360E-20 -.424E-21 0.286E-20
   0.241E-03 -.425E-03 0.379E-03   0.182E-04 0.182E-04 -.183E-04   0.000E+00 -.326E-20 0.106E-20
   -.306E-03 0.200E-03 0.588E-03   0.182E-04 -.183E-04 0.182E-04   0.275E-20 -.635E-20 -.296E-20
   -.388E-03 0.543E-03 0.355E-04   -.266E-06 0.356E-07 -.266E-06   0.318E-20 0.381E-20 -.212E-20
   -.485E-03 -.296E-03 -.323E-03   0.356E-07 0.356E-07 0.356E-07   -.424E-21 0.191E-20 0.212E-21
   0.275E-03 0.594E-04 -.281E-03   0.356E-07 -.266E-06 -.266E-06   -.172E-20 0.466E-20 0.381E-20
   -.415E-04 0.266E-04 0.509E-03   -.266E-06 -.266E-06 0.356E-07   -.191E-20 -.847E-21 -.169E-20
   -.424E-03 -.394E-03 -.526E-03   -.449E-04 -.449E-04 -.449E-04   -.424E-20 0.119E-19 0.150E-19
   0.246E-03 -.123E-02 -.827E-03   -.394E-04 0.338E-04 0.397E-04   0.593E-20 0.699E-20 0.275E-20
   -.122E-02 -.914E-03 0.335E-03   0.338E-04 0.397E-04 -.394E-04   -.889E-20 0.114E-19 -.551E-20
   -.105E-02 0.637E-03 -.137E-02   0.397E-04 -.394E-04 0.338E-04   -.254E-20 0.296E-20 0.106E-21
   0.154E-03 0.151E-03 -.434E-04   0.338E-04 -.394E-04 0.397E-04   0.635E-20 -.254E-20 0.000E+00
   0.448E-03 -.420E-03 -.207E-03   -.394E-04 0.397E-04 0.338E-04   0.193E-19 0.784E-20 0.762E-20
   -.399E-03 -.152E-06 0.400E-03   0.397E-04 0.338E-04 -.394E-04   0.503E-20 -.152E-19 -.424E-21
   -.228E-03 -.163E-03 0.333E-04   -.340E-04 0.397E-04 0.397E-04   0.212E-21 0.123E-19 0.241E-19
   -.224E-03 -.722E-03 -.257E-03   -.393E-04 -.393E-04 -.340E-04   -.275E-20 -.131E-19 -.551E-20
   -.407E-03 0.886E-03 -.331E-03   0.445E-04 -.447E-04 0.445E-04   0.111E-19 0.424E-20 0.762E-20
   -.212E-03 -.365E-03 0.795E-03   0.445E-04 0.445E-04 -.447E-04   -.136E-19 0.424E-21 0.593E-20
   -.686E-03 -.104E-03 0.102E-03   -.393E-04 -.340E-04 -.393E-04   0.375E-19 -.466E-20 0.847E-21
   -.150E-03 -.145E-03 -.689E-03   0.397E-04 -.340E-04 0.397E-04   0.635E-20 0.974E-20 -.250E-19
   0.953E-04 0.642E-04 -.577E-03   -.340E-04 -.393E-04 -.393E-04   0.127E-19 -.847E-20 0.424E-20
   0.563E-03 -.351E-03 -.678E-03   -.447E-04 0.445E-04 0.445E-04   -.741E-20 -.424E-20 -.140E-19
   -.343E-03 0.102E-04 0.568E-04   0.397E-04 0.397E-04 -.340E-04   -.466E-20 -.328E-20 0.000E+00
   0.578E+02 0.578E+02 0.578E+02   -.571E+02 -.571E+02 -.571E+02   -.560E+00 -.560E+00 -.560E+00
   -.578E+02 -.578E+02 0.578E+02   0.571E+02 0.571E+02 -.571E+02   0.560E+00 0.560E+00 -.560E+00
   -.578E+02 0.578E+02 -.578E+02   0.571E+02 -.571E+02 0.571E+02   0.560E+00 -.560E+00 0.560E+00
   0.578E+02 -.578E+02 -.578E+02   -.571E+02 0.571E+02 0.571E+02   -.560E+00 0.560E+00 0.560E+00
   0.578E+02 0.578E+02 -.578E+02   -.571E+02 -.571E+02 0.571E+02   -.560E+00 -.560E+00 0.560E+00
   -.578E+02 -.578E+02 -.578E+02   0.571E+02 0.571E+02 0.571E+02   0.560E+00 0.560E+00 0.560E+00
   0.578E+02 -.578E+02 0.578E+02   -.571E+02 0.571E+02 -.571E+02   -.560E+00 0.560E+00 -.560E+00
   -.578E+02 0.578E+02 0.578E+02   0.571E+02 -.571E+02 -.571E+02   0.560E+00 -.560E+00 -.560E+00
   0.578E+02 0.578E+02 -.578E+02   -.571E+02 -.571E+02 0.571E+02   -.560E+00 -.560E+00 0.560E+00
   0.578E+02 -.578E+02 0.578E+02   -.571E+02 0.571E+02 -.571E+02   -.560E+00 0.560E+00 -.560E+00
   -.578E+02 0.578E+02 0.578E+02   0.571E+02 -.571E+02 -.571E+02   0.560E+00 -.560E+00 -.560E+00
   -.578E+02 -.578E+02 0.578E+02   0.571E+02 0.571E+02 -.571E+02   0.560E+00 0.560E+00 -.560E+00
   -.578E+02 0.578E+02 -.578E+02   0.571E+02 -.571E+02 0.571E+02   0.560E+00 -.560E+00 0.560E+00
   0.578E+02 -.578E+02 -.578E+02   -.571E+02 0.571E+02 0.571E+02   -.560E+00 0.560E+00 0.560E+00
   0.578E+02 0.578E+02 0.578E+02   -.571E+02 -.571E+02 -.571E+02   -.560E+00 -.560E+00 -.560E+00
   -.578E+02 -.578E+02 0.578E+02   0.571E+02 0.571E+02 -.571E+02   0.560E+00 0.560E+00 -.560E+00
   -.578E+02 0.578E+02 -.578E+02   0.571E+02 -.571E+02 0.571E+02   0.560E+00 -.560E+00 0.560E+00
   0.578E+02 0.578E+02 -.578E+02   -.571E+02 -.571E+02 0.571E+02   -.560E+00 -.560E+00 0.560E+00
   -.578E+02 -.578E+02 -.578E+02   0.571E+02 0.571E+02 0.571E+02   0.560E+00 0.560E+00 0.560E+00
   0.578E+02 -.578E+02 0.578E+02   -.571E+02 0.571E+02 -.571E+02   -.560E+00 0.560E+00 -.560E+00
   0.578E+02 0.578E+02 -.578E+02   -.571E+02 -.571E+02 0.571E+02   -.560E+00 -.560E+00 0.560E+00
   0.578E+02 -.578E+02 0.578E+02   -.571E+02 0.571E+02 -.571E+02   -.560E+00 0.560E+00 -.560E+00
   -.578E+02 -.578E+02 0.578E+02   0.571E+02 0.571E+02 -.571E+02   0.560E+00 0.560E+00 -.560E+00
   -.578E+02 0.578E+02 -.578E+02   0.571E+02 -.571E+02 0.571E+02   0.560E+00 -.560E+00 0.560E+00
   0.578E+02 0.578E+02 0.578E+02   -.571E+02 -.571E+02 -.571E+02   -.560E+00 -.560E+00 -.560E+00
   0.578E+02 -.578E+02 -.578E+02   -.571E+02 0.571E+02 0.571E+02   -.560E+00 0.560E+00 0.560E+00
   -.578E+02 -.578E+02 -.578E+02   0.571E+02 0.571E+02 0.571E+02   0.560E+00 0.560E+00 0.560E+00
   -.578E+02 0.578E+02 0.578E+02   0.571E+02 -.571E+02 -.571E+02   0.560E+00 -.560E+00 -.560E+00
   -.578E+02 0.578E+02 0.578E+02   0.571E+02 -.571E+02 -.571E+02   0.560E+00 -.560E+00 -.560E+00
   0.578E+02 -.578E+02 -.578E+02   -.571E+02 0.571E+02 0.571E+02   -.560E+00 0.560E+00 0.560E+00
   0.578E+02 0.578E+02 0.578E+02   -.571E+02 -.571E+02 -.571E+02   -.560E+00 -.560E+00 -.560E+00
   -.578E+02 -.578E+02 -.578E+02   0.571E+02 0.571E+02 0.571E+02   0.560E+00 0.560E+00 0.560E+00
 -----------------------------------------------------------------------------------------------
   0.182E-02 -.339E-02 -.145E-02   0.135E-12 -.995E-13 0.782E-13   -.122E-14 0.111E-14 0.200E-14
 
 
 POSITION                                       TOTAL-FORCE (eV/Angst)
 -----------------------------------------------------------------------------------
      0.00000      0.00000      0.00000         0.000000      0.000000     -0.000000
      0.00000      5.51118      5.51118         0.000000      0.000000     -0.000000
      5.51118      5.51118      0.00000         0.000000      0.000000     -0.000000
      5.51118      0.00000      5.51118         0.000000      0.000000     -0.000000
      8.26677      2.75559      8.26677         0.000000      0.000000     -0.000000
      2.75559      2.75559      2.75559         0.000000      0.000000     -0.000000
      2.75559      8.26677      8.26677         0.000000      0.000000     -0.000000
      8.26677      8.26677      2.75559         0.000000      0.000000     -0.000000
      6.88897      6.88897      6.88897         0.000000      0.000000     -0.000000
      4.13338      9.64456      1.37779         0.000000      0.000000     -0.000000
      9.64456      1.37779      4.13338         0.000000      0.000000     -0.000000
      1.37779      4.13338      9.64456         0.000000      0.000000     -0.000000
      9.64456      4.13338      1.37779         0.000000      0.000000     -0.000000
      4.13338      1.37779      9.64456         0.000000      0.000000     -0.000000
      1.37779      9.64456      4.13338         0.000000      0.000000     -0.000000
      6.88897      1.37779      1.37779         0.000000      0.000000     -0.000000
      4.13338      4.13338      6.88897         0.000000      0.000000     -0.000000
      9.64456      6.88897      9.64456         0.000000      0.000000     -0.000000
      9.64456      9.64456      6.88897         0.000000      0.000000     -0.000000
      4.13338      6.88897      4.13338         0.000000      0.000000     -0.000000
      1.37779      6.88897      1.37779         0.000000      0.000000     -0.000000
      6.88897      4.13338      4.13338         0.000000      0.000000     -0.000000
      6.88897      9.64456      9.64456         0.000000      0.000000     -0.000000
      1.37779      1.37779      6.88897         0.000000      0.000000     -0.000000
      4.24193      4.24193      4.24193         0.087905      0.087905      0.087905
      6.78043      1.26925      9.75310        -0.087905     -0.087905      0.087905
      1.26925      9.75310      6.78043        -0.087905      0.087905     -0.087905
      9.75310      6.78043      1.26925         0.087905     -0.087905     -0.087905
      1.48634      6.99752      4.02484         0.087905      0.087905     -0.087905
      9.53602      9.53602      9.53602        -0.087905     -0.087905     -0.087905
      6.99752      4.02484      1.48634         0.087905     -0.087905      0.087905
      4.02484      1.48634      6.99752        -0.087905      0.087905      0.087905
      6.99752      1.48634      4.02484         0.087905      0.087905     -0.087905
      1.48634      4.02484      6.99752         0.087905     -0.087905      0.087905
      4.02484      6.99752      1.48634        -0.087905      0.087905      0.087905
      1.26925      6.78043      9.75310        -0.087905     -0.087905      0.087905
      6.78043      9.75310      1.26925        -0.087905      0.087905     -0.087905
      9.75310      1.26925      6.78043         0.087905     -0.087905     -0.087905
      4.24193      9.75310      9.75310         0.087905      0.087905      0.087905
      6.78043      6.78043      4.24193        -0.087905     -0.087905      0.087905
      1.26925      4.24193      1.26925        -0.087905      0.087905     -0.087905
      1.48634      1.48634      9.53602         0.087905      0.087905     -0.087905
      9.53602      4.02484      4.02484        -0.087905     -0.087905     -0.087905
      6.99752      9.53602      6.99752         0.087905     -0.087905      0.087905
      6.99752      6.99752      9.53602         0.087905      0.087905     -0.087905
      1.48634      9.53602      1.48634         0.087905     -0.087905      0.087905
      1.26925      1.26925      4.24193        -0.087905     -0.087905      0.087905
      6.78043      4.24193      6.78043        -0.087905      0.087905     -0.087905
      9.75310      4.24193      9.75310         0.087905      0.087905      0.087905
      4.24193      6.78043      6.78043         0.087905     -0.087905     -0.087905
      4.02484      9.53602      4.02484        -0.087905     -0.087905     -0.087905
      9.53602      1.48634      1.48634        -0.087905      0.087905      0.087905
      9.53602      6.99752      6.99752        -0.087905      0.087905      0.087905
      4.24193      1.26925      1.26925         0.087905     -0.087905     -0.087905
      9.75310      9.75310      4.24193         0.087905      0.087905      0.087905
      4.02484      4.02484      9.53602        -0.087905     -0.087905     -0.087905
 -----------------------------------------------------------------------------------
    total drift:                                0.001822     -0.003387     -0.001452


--------------------------------------------------------------------------------------------------------



  FREE ENERGIE OF THE ION-ELECTRON SYSTEM (eV)
  ---------------------------------------------------
  free  energy   TOTEN  =      -282.79286282 eV

  energy  without entropy=     -282.79286282  energy(sigma->0) =     -282.79286282
 


--------------------------------------------------------------------------------------------------------


    POTLOK:  cpu time    3.83: real time    3.83


--------------------------------------------------------------------------------------------------------


 writing wavefunctions
     LOOP+:  cpu time********: real time********
    4ORBIT:  cpu time    0.00: real time    0.00
 


 total charge     
 
# of ion     s       p       d       tot
----------------------------------------
  1        0.379   0.281   9.605  10.265
  2        0.379   0.281   9.605  10.265
  3        0.379   0.281   9.605  10.265
  4        0.379   0.281   9.605  10.265
  5        0.379   0.281   9.605  10.265
  6        0.379   0.281   9.605  10.265
  7        0.379   0.281   9.605  10.265
  8        0.379   0.281   9.605  10.265
  9        0.712   0.597   9.965  11.275
 10        0.713   0.597   9.965  11.275
 11        0.713   0.597   9.965  11.275
 12        0.713   0.597   9.965  11.275
 13        0.713   0.597   9.965  11.275
 14        0.713   0.597   9.965  11.275
 15        0.712   0.597   9.965  11.275
 16        0.712   0.597   9.965  11.275
 17        0.713   0.597   9.965  11.275
 18        0.713   0.597   9.965  11.275
 19        0.712   0.597   9.965  11.275
 20        0.712   0.597   9.965  11.275
 21        0.712   0.597   9.965  11.275
 22        0.712   0.597   9.965  11.275
 23        0.713   0.597   9.965  11.275
 24        0.712   0.597   9.965  11.275
 25        1.326   2.406   0.000   3.732
 26        1.326   2.406   0.000   3.732
 27        1.326   2.406   0.000   3.732
 28        1.326   2.406   0.000   3.732
 29        1.326   2.406   0.000   3.732
 30        1.326   2.406   0.000   3.732
 31        1.326   2.406   0.000   3.732
 32        1.326   2.406   0.000   3.732
 33        1.326   2.406   0.000   3.732
 34        1.326   2.406   0.000   3.732
 35        1.326   2.406   0.000   3.732
 36        1.326   2.406   0.000   3.732
 37        1.326   2.406   0.000   3.732
 38        1.326   2.406   0.000   3.732
 39        1.326   2.406   0.000   3.732
 40        1.326   2.406   0.000   3.732
 41        1.326   2.406   0.000   3.732
 42        1.326   2.406   0.000   3.732
 43        1.326   2.406   0.000   3.732
 44        1.326   2.406   0.000   3.732
 45        1.326   2.406   0.000   3.732
 46        1.326   2.406   0.000   3.732
 47        1.326   2.406   0.000   3.732
 48        1.326   2.406   0.000   3.732
 49        1.326   2.406   0.000   3.732
 50        1.326   2.406   0.000   3.732
 51        1.326   2.406   0.000   3.732
 52        1.326   2.406   0.000   3.732
 53        1.326   2.406   0.000   3.732
 54        1.326   2.406   0.000   3.732
 55        1.326   2.406   0.000   3.732
 56        1.326   2.406   0.000   3.732
------------------------------------------------
tot       56.871  88.788 236.278 381.936
 
 BZINTS: Fermi energy:  2.277344;496.000000 electrons
         Band energy:***********;  BLOECHL correction:  0.000000

 total amount of memory used by VASP on root node   596895. kBytes
========================================================================

   base      :      30000. kBytes
   nonl-proj :     117387. kBytes
   fftplans  :      28138. kBytes
   grid      :      77379. kBytes
   one-center:        870. kBytes
   HF        :        194. kBytes
   nonlr-proj:      11514. kBytes
   wavefun   :     331413. kBytes
 
  
  
 General timing and accounting informations for this job:
 ========================================================
  
                  Total CPU time used (sec):   395483.219
                            User time (sec):   395296.176
                          System time (sec):      187.040
                         Elapsed time (sec):   397428.537
  
                   Maximum memory used (kb):      651136.
                   Average memory used (kb):           0.
  
                          Minor page faults:     65906496
                          Major page faults:            6
                 Voluntary context switches:         7919
