 vasp.5.3.5 31Mar14 (build Jan 22 2015 17:36:29) complex                        
  
 executed on             LinuxIFC date 2016.08.27  23:10:30
 running on   16 total cores
 distrk:  each k-point on   16 cores,    1 groups
 distr:  one band on NCORES_PER_BAND=   4 cores,    4 groups


--------------------------------------------------------------------------------------------------------


 INCAR:
 POTCAR:    PAW_PBE Cd 06Sep2000                  
 POTCAR:    PAW_PBE In_d 06Sep2000                
 POTCAR:    PAW_PBE S 06Sep2000                   
 POTCAR:    PAW_PBE Cd 06Sep2000                  
   VRHFIN =Cd : s2 d10                                                          
   LEXCH  = PE                                                                  
   EATOM  =  1293.1815 eV,   95.0462 Ry                                         
                                                                                
   TITEL  = PAW_PBE Cd 06Sep2000                                                
   LULTRA =        F    use ultrasoft PP ?                                      
   IUNSCR =        1    unscreen: 0-lin 1-nonlin 2-no                           
   RPACOR =    2.000    partial core radius                                     
   POMASS =  112.411; ZVAL   =   12.000    mass and valenz                      
   RCORE  =    2.300    outmost cutoff radius                                   
   RWIGS  =    2.980; RWIGS  =    1.577    wigner-seitz radius (au A)           
   ENMAX  =  274.336; ENMIN  =  205.752 eV                                      
   RCLOC  =    2.054    cutoff for local pot                                    
   LCOR   =        T    correct aug charges                                     
   LPAW   =        T    paw PP                                                  
   EAUG   =  456.106                                                            
   DEXC   =    0.000                                                            
   RMAX   =    2.358    core radius for proj-oper                               
   RAUG   =    1.300    factor for augmentation sphere                          
   RDEP   =    2.450    radius for radial grids                                 
   RDEPT  =    1.955    core radius for aug-charge                              
                                                                                
   Atomic configuration                                                         
   12 entries                                                                   
     n  l   j            E        occ.                                          
     1  0  0.50    -26519.7817   2.0000                                         
     2  0  0.50     -3936.9612   2.0000                                         
     2  1  1.50     -3532.2230   6.0000                                         
     3  0  0.50      -733.7908   2.0000                                         
     3  1  1.50      -601.0792   6.0000                                         
     3  2  2.50      -393.5307  10.0000                                         
     4  0  0.50      -105.8977   2.0000                                         
     4  1  1.50       -66.9488   6.0000                                         
     4  2  2.50       -11.7331  10.0000                                         
     5  0  0.50        -5.6592   2.0000                                         
     5  1  0.50        -1.3606   0.0000                                         
     4  3  2.50        -1.3606   0.0000                                         
   Description                                                                  
     l       E           TYP  RCUT    TYP  RCUT                                 
     2    -11.7331479     23  2.300                                             
     2    -13.0937305     23  2.300                                             
     0     -5.6591502     23  2.300                                             
     0     -1.5561433     23  2.300                                             
     1     -2.7211652     23  2.300                                             
     1      8.3548275     23  2.300                                             
  local pseudopotential read in
  partial core-charges read in
  partial kinetic energy density read in
  atomic valenz-charges read in
  non local Contribution for L=           2  read in
    real space projection operators read in
  non local Contribution for L=           2  read in
    real space projection operators read in
  non local Contribution for L=           0  read in
    real space projection operators read in
  non local Contribution for L=           0  read in
    real space projection operators read in
  non local Contribution for L=           1  read in
    real space projection operators read in
  non local Contribution for L=           1  read in
    real space projection operators read in
    PAW grid and wavefunctions read in
 
   number of l-projection  operators is LMAX  =           6
   number of lm-projection operators is LMMAX =          18
 
 POTCAR:    PAW_PBE In_d 06Sep2000                
   VRHFIN =In: s2p1                                                             
   LEXCH  = PE                                                                  
   EATOM  =  1576.8302 eV,  115.8937 Ry                                         
                                                                                
   TITEL  = PAW_PBE In_d 06Sep2000                                              
   LULTRA =        F    use ultrasoft PP ?                                      
   IUNSCR =        1    unscreen: 0-lin 1-nonlin 2-no                           
   RPACOR =    2.200    partial core radius                                     
   POMASS =  114.820; ZVAL   =   13.000    mass and valenz                      
   RCORE  =    2.500    outmost cutoff radius                                   
   RWIGS  =    3.170; RWIGS  =    1.677    wigner-seitz radius (au A)           
   ENMAX  =  239.211; ENMIN  =  179.409 eV                                      
   ICORE  =        3    local potential                                         
   LCOR   =        T    correct aug charges                                     
   LPAW   =        T    paw PP                                                  
   EAUG   =  449.704                                                            
   DEXC   =    0.000                                                            
   RMAX   =    2.552    core radius for proj-oper                               
   RAUG   =    1.300    factor for augmentation sphere                          
   RDEP   =    2.630    radius for radial grids                                 
   RDEPT  =    2.033    core radius for aug-charge                              
                                                                                
   Atomic configuration                                                         
   12 entries                                                                   
     n  l   j            E        occ.                                          
     1  0  0.50    -27747.9169   2.0000                                         
     2  0  0.50     -4154.4438   2.0000                                         
     2  1  1.50     -3728.4305   6.0000                                         
     3  0  0.50      -788.3680   2.0000                                         
     3  1  1.50      -648.9215   6.0000                                         
     3  2  2.50      -432.5893  10.0000                                         
     4  0  0.50      -119.6363   2.0000                                         
     4  1  1.50       -78.1086   6.0000                                         
     4  2  2.50       -18.6227  10.0000                                         
     5  0  0.50        -8.2107   2.0000                                         
     5  1  0.50        -2.5185   1.0000                                         
     4  3  2.50        -2.7212   0.0000                                         
   Description                                                                  
     l       E           TYP  RCUT    TYP  RCUT                                 
     2    -18.6226981     23  2.500                                             
     2     -1.3605826     23  2.500                                             
     0     -8.2107305     23  2.500                                             
     0     -6.1485975     23  2.500                                             
     1     -2.5184867     23  2.500                                             
     1      3.2427302     23  2.500                                             
     3     -1.3605826      7  2.500                                             
  local pseudopotential read in
  partial core-charges read in
  partial kinetic energy density read in
  atomic valenz-charges read in
  non local Contribution for L=           2  read in
    real space projection operators read in
  non local Contribution for L=           2  read in
    real space projection operators read in
  non local Contribution for L=           0  read in
    real space projection operators read in
  non local Contribution for L=           0  read in
    real space projection operators read in
  non local Contribution for L=           1  read in
    real space projection operators read in
  non local Contribution for L=           1  read in
    real space projection operators read in
    PAW grid and wavefunctions read in
 
   number of l-projection  operators is LMAX  =           6
   number of lm-projection operators is LMMAX =          18
 
 POTCAR:    PAW_PBE S 06Sep2000                   
   VRHFIN =S : s2p4                                                             
   LEXCH  = PE                                                                  
   EATOM  =   276.8230 eV,   20.3459 Ry                                         
                                                                                
   TITEL  = PAW_PBE S 06Sep2000                                                 
   LULTRA =        F    use ultrasoft PP ?                                      
   IUNSCR =        1    unscreen: 0-lin 1-nonlin 2-no                           
   RPACOR =    1.500    partial core radius                                     
   POMASS =   32.066; ZVAL   =    6.000    mass and valenz                      
   RCORE  =    1.900    outmost cutoff radius                                   
   RWIGS  =    2.200; RWIGS  =    1.164    wigner-seitz radius (au A)           
   ENMAX  =  258.689; ENMIN  =  194.016 eV                                      
   ICORE  =        2    local potential                                         
   LCOR   =        T    correct aug charges                                     
   LPAW   =        T    paw PP                                                  
   EAUG   =  335.092                                                            
   DEXC   =    0.000                                                            
   RMAX   =    1.942    core radius for proj-oper                               
   RAUG   =    1.300    factor for augmentation sphere                          
   RDEP   =    1.954    radius for radial grids                                 
   RDEPT  =    1.744    core radius for aug-charge                              
                                                                                
   Atomic configuration                                                         
    6 entries                                                                   
     n  l   j            E        occ.                                          
     1  0  0.50     -2405.8406   2.0000                                         
     2  0  0.50      -211.7007   2.0000                                         
     2  1  1.50      -156.4958   6.0000                                         
     3  0  0.50       -17.2562   2.0000                                         
     3  1  0.50        -7.0085   4.0000                                         
     3  2  1.50        -6.8029   0.0000                                         
   Description                                                                  
     l       E           TYP  RCUT    TYP  RCUT                                 
     0    -17.2561641     23  1.900                                             
     0    -15.8743224     23  1.900                                             
     1     -7.0085400     23  1.900                                             
     1     -2.7779785     23  1.900                                             
     2     -6.8029130     23  1.900                                             
  local pseudopotential read in
  partial core-charges read in
  partial kinetic energy density read in
  atomic valenz-charges read in
  non local Contribution for L=           0  read in
    real space projection operators read in
  non local Contribution for L=           0  read in
    real space projection operators read in
  non local Contribution for L=           1  read in
    real space projection operators read in
  non local Contribution for L=           1  read in
    real space projection operators read in
    PAW grid and wavefunctions read in
 
   number of l-projection  operators is LMAX  =           4
   number of lm-projection operators is LMMAX =           8
 

 ----------------------------------------------------------------------------- 
|                                                                             |
|  ADVICE TO THIS USER RUNNING 'VASP/VAMP'   (HEAR YOUR MASTER'S VOICE ...):  |
|                                                                             |
|      You have a (more or less) 'large supercell' and for larger cells       |
|      it might be more efficient to use real space projection opertators     |
|      So try LREAL= Auto  in the INCAR   file.                               |
|      Mind: At the moment your POTCAR file does not contain real space       |
|       projectors, and has to be modified,  BUT if you                       |
|      want to do an extremely  accurate calculation you might also keep the  |
|      reciprocal projection scheme          (i.e. LREAL=.FALSE.)             |
|                                                                             |
 ----------------------------------------------------------------------------- 

  PAW_PBE Cd 06Sep2000                  :
 energy of atom  1       EATOM=-1293.1815
 kinetic energy error for atom=    0.0041 (will be added to EATOM!!)
  PAW_PBE In_d 06Sep2000                :
 energy of atom  2       EATOM=-1576.8302
 kinetic energy error for atom=    0.0011 (will be added to EATOM!!)
  PAW_PBE S 06Sep2000                   :
 energy of atom  3       EATOM= -276.8230
 kinetic energy error for atom=    0.0009 (will be added to EATOM!!)
 
 
 POSCAR: Cd In2 S4                               
  positions in direct lattice
  velocities in cartesian coordinates
 exchange correlation table for  LEXCH =        8
   RHO(1)=    0.500       N(1)  =     2000
   RHO(2)=  100.500       N(2)  =     4000
 


--------------------------------------------------------------------------------------------------------


 ion  position               nearest neighbor table
   1  1.000  0.997  0.000-  53 2.55  31 2.56  47 2.56  43 2.58
   2  1.000  0.499  0.503-  44 2.55  35 2.56  54 2.56  30 2.58
   3  0.497  0.499  0.000-  32 2.55  57 2.56  36 2.56  46 2.58
   4  0.522  0.026  0.478-  34 2.39  33 2.67  45 2.71  52 2.71  25 2.83
   5  0.750  0.250  0.746-  50 2.55  39 2.56  49 2.56  27 2.58
   6  0.254  0.250  0.250-  42 2.55  55 2.56  26 2.56  48 2.58
   7  0.226  0.728  0.774-  37 2.40  28 2.68  40 2.68  51 2.71  25 2.84
   8  0.750  0.754  0.250-  29 2.55  56 2.56  38 2.56  41 2.58
   9  0.628  0.622  0.625-  49 2.62  54 2.62  46 2.63  41 2.64  51 2.74  45 2.74  22 3.83  18 3.83
                            19 3.90  17 3.90  25 3.91  20 3.93  23 3.94
  10  0.375  0.875  0.125-  52 2.63  40 2.64  38 2.66  55 2.66  36 2.66  47 2.66  14 3.89  15 3.90
                            20 3.90  23 3.90  21 3.95  16 3.96
  11  0.885  0.128  0.372-  48 2.61  34 2.62  44 2.66  53 2.66  56 2.67  39 2.67  24 3.83  15 3.83
                            13 3.85  19 3.96  22 4.00  16 4.00
  12  0.121  0.365  0.879-  43 2.61  37 2.62  42 2.66  50 2.66  35 2.67  57 2.67  14 3.83  24 3.83
                            13 3.84  17 3.95  21 4.00  18 4.00
  13  0.875  0.375  0.125-  50 2.64  29 2.64  42 2.64  44 2.64  32 2.64  53 2.64  12 3.84  21 3.84
                            18 3.84  22 3.84  11 3.85  16 3.85
  14  0.375  0.127  0.878-  55 2.62  57 2.63  43 2.63  27 2.64  40 2.73  33 2.73  16 3.83  12 3.83
                            10 3.89  17 3.90  23 3.93  24 3.94  25 3.96
  15  0.123  0.875  0.373-  47 2.62  56 2.62  48 2.63  30 2.64  28 2.73  52 2.73  21 3.83  11 3.83
                            10 3.90  19 3.90  24 3.93  25 3.93  20 3.94
  16  0.628  0.128  0.115-  27 2.61  34 2.62  32 2.66  53 2.66  38 2.67  55 2.67  14 3.83  23 3.83
                            13 3.85  10 3.96  22 4.00  11 4.00
  17  0.375  0.375  0.625-  33 2.63  51 2.64  57 2.66  35 2.66  49 2.66  26 2.66  14 3.90  24 3.90
                             9 3.90  20 3.90  12 3.95  22 3.96
  18  0.865  0.621  0.879-  46 2.61  37 2.62  50 2.66  29 2.66  31 2.67  54 2.67  23 3.83   9 3.83
                            13 3.84  19 3.95  21 4.00  12 4.00
  19  0.875  0.875  0.625-  45 2.63  28 2.64  39 2.66  56 2.66  54 2.66  31 2.66  24 3.89  23 3.90
                             9 3.90  15 3.90  18 3.95  11 3.96
  20  0.375  0.622  0.372-  26 2.62  36 2.62  30 2.63  41 2.64  51 2.74  52 2.74  22 3.83  21 3.83
                            10 3.90  17 3.90  25 3.91   9 3.93  15 3.94
  21  0.121  0.621  0.135-  30 2.61  37 2.62  42 2.66  29 2.66  47 2.67  36 2.67  15 3.83  20 3.83
                            13 3.84  10 3.95  18 4.00  12 4.00
  22  0.629  0.385  0.371-  41 2.61  34 2.63  32 2.66  44 2.66  49 2.67  26 2.67   9 3.83  20 3.83
                            13 3.84  17 3.96  11 4.00  16 4.00
  23  0.627  0.875  0.877-  38 2.62  31 2.62  27 2.63  46 2.64  40 2.73  45 2.73  18 3.83  16 3.83
                            19 3.90  10 3.90  14 3.93  25 3.94   9 3.94
  24  0.122  0.127  0.625-  39 2.62  35 2.63  43 2.63  48 2.64  28 2.73  33 2.73  11 3.83  12 3.83
                            19 3.89  17 3.90  15 3.93  14 3.94  25 3.96
  25  0.376  0.873  0.624-   4 2.83   7 2.84  51 2.86  52 2.87  45 2.87  28 2.89  40 2.89  33 2.91
                            20 3.91   9 3.91  15 3.93  23 3.94  24 3.96  14 3.96
  26  0.387  0.385  0.384-   6 2.56  20 2.62  17 2.66  22 2.67
  27  0.614  0.113  0.879-   5 2.58  16 2.61  23 2.63  14 2.64
  28  0.114  0.880  0.620-  19 2.64   7 2.68  24 2.73  15 2.73  25 2.89
  29  0.881  0.614  0.119-   8 2.55  13 2.64  21 2.66  18 2.66
  30  0.137  0.636  0.371-   2 2.58  21 2.61  20 2.63  15 2.64
  31  0.865  0.863  0.866-   1 2.56  23 2.62  19 2.66  18 2.67
  32  0.636  0.369  0.131-   3 2.55  13 2.64  16 2.66  22 2.66
  33  0.370  0.136  0.630-  17 2.63   4 2.67  24 2.73  14 2.73  25 2.91
  34  0.649  0.148  0.351-   4 2.39  11 2.62  16 2.62  22 2.63
  35  0.134  0.365  0.637-   2 2.56  24 2.63  17 2.66  12 2.67
  36  0.363  0.634  0.135-   3 2.56  20 2.62  10 2.66  21 2.67
  37  0.101  0.601  0.899-   7 2.40  21 2.62  18 2.62  12 2.62
  38  0.616  0.887  0.115-   8 2.56  23 2.62  10 2.66  16 2.67
  39  0.885  0.116  0.613-   5 2.56  24 2.62  19 2.66  11 2.67
  40  0.380  0.880  0.886-  10 2.64   7 2.68  14 2.73  23 2.73  25 2.89
  41  0.614  0.621  0.386-   8 2.58  22 2.61   9 2.64  20 2.64
  42  0.115  0.381  0.119-   6 2.55  13 2.64  21 2.66  12 2.66
  43  0.136  0.129  0.863-   1 2.58  12 2.61  24 2.63  14 2.63
  44  0.869  0.369  0.364-   2 2.55  13 2.64  11 2.66  22 2.66
  45  0.636  0.870  0.630-  19 2.63   4 2.71  23 2.73   9 2.74  25 2.87
  46  0.629  0.636  0.863-   3 2.58  18 2.61   9 2.63  23 2.64
  47  0.134  0.863  0.135-   1 2.56  15 2.62  10 2.66  21 2.67
  48  0.121  0.113  0.386-   6 2.58  11 2.61  15 2.63  24 2.64
  49  0.616  0.385  0.613-   5 2.56   9 2.62  17 2.66  22 2.67
  50  0.881  0.381  0.885-   5 2.55  13 2.64  18 2.66  12 2.66
  51  0.380  0.614  0.620-  17 2.64   7 2.71  20 2.74   9 2.74  25 2.86
  52  0.370  0.870  0.364-  10 2.63   4 2.71  15 2.73  20 2.74  25 2.87
  53  0.869  0.135  0.131-   1 2.55  13 2.64  11 2.66  16 2.66
  54  0.865  0.634  0.637-   2 2.56   9 2.62  19 2.66  18 2.67
  55  0.387  0.116  0.115-   6 2.56  14 2.62  10 2.66  16 2.67
  56  0.885  0.887  0.384-   8 2.56  15 2.62  19 2.66  11 2.67
  57  0.363  0.365  0.866-   3 2.56  14 2.63  17 2.66  12 2.67
 
  LATTYP: Found a simple cubic cell.
 ALAT       =    11.0223536917
  
  Lattice vectors:
  
 A1 = (  11.0223536917,   0.0000000000,   0.0000000000)
 A2 = (   0.0000000000,  11.0223536917,   0.0000000000)
 A3 = (   0.0000000000,   0.0000000000,  11.0223536917)


Analysis of symmetry for initial positions (statically):
=====================================================================
 Subroutine PRICEL returns:
 Original cell was already a primitive cell.
 

 Routine SETGRP: Setting up the symmetry group for a 
 simple cubic supercell.


 Subroutine GETGRP returns: Found  1 space group operations
 (whereof  1 operations were pure point group operations)
 out of a pool of 48 trial point group operations.


The static configuration has the point symmetry C_1 .


Analysis of symmetry for dynamics (positions and initial velocities):
=====================================================================
 Subroutine PRICEL returns:
 Original cell was already a primitive cell.
 

 Routine SETGRP: Setting up the symmetry group for a 
 simple cubic supercell.


 Subroutine GETGRP returns: Found  1 space group operations
 (whereof  1 operations were pure point group operations)
 out of a pool of 48 trial point group operations.


The dynamic configuration has the point symmetry C_1 .
 
 
 KPOINTS: Automatic mesh                          

Automatic generation of k-mesh.
Space group operators:
 irot       det(A)        alpha          n_x          n_y          n_z        tau_x        tau_y        tau_z
    1     1.000000     0.000001     1.000000     0.000000     0.000000     0.000000     0.000000     0.000000
 
 Subroutine IBZKPT returns following result:
 ===========================================
 
 Found     14 irreducible k-points:
 
 Following reciprocal coordinates:
            Coordinates               Weight
  0.000000  0.000000  0.000000      1.000000
  0.333333  0.000000  0.000000      2.000000
  0.000000  0.333333  0.000000      2.000000
  0.333333  0.333333  0.000000      2.000000
 -0.333333  0.333333  0.000000      2.000000
  0.000000  0.000000  0.333333      2.000000
  0.333333  0.000000  0.333333      2.000000
 -0.333333  0.000000  0.333333      2.000000
  0.000000  0.333333  0.333333      2.000000
  0.333333  0.333333  0.333333      2.000000
 -0.333333  0.333333  0.333333      2.000000
  0.000000 -0.333333  0.333333      2.000000
  0.333333 -0.333333  0.333333      2.000000
 -0.333333 -0.333333  0.333333      2.000000
 
 Following cartesian coordinates:
            Coordinates               Weight
  0.000000  0.000000  0.000000      1.000000
  0.030242  0.000000  0.000000      2.000000
  0.000000  0.030242  0.000000      2.000000
  0.030242  0.030242  0.000000      2.000000
 -0.030242  0.030242  0.000000      2.000000
  0.000000  0.000000  0.030242      2.000000
  0.030242  0.000000  0.030242      2.000000
 -0.030242  0.000000  0.030242      2.000000
  0.000000  0.030242  0.030242      2.000000
  0.030242  0.030242  0.030242      2.000000
 -0.030242  0.030242  0.030242      2.000000
  0.000000 -0.030242  0.030242      2.000000
  0.030242 -0.030242  0.030242      2.000000
 -0.030242 -0.030242  0.030242      2.000000
 
 TETIRR: Found     78 inequivalent tetrahedra from      162


--------------------------------------------------------------------------------------------------------




 Dimension of arrays:
   k-points           NKPTS =     14   k-points in BZ     NKDIM =     14   number of bands    NBANDS=    308
   number of dos      NEDOS =   1601   number of ions     NIONS =     57
   non local maximal  LDIM  =      6   non local SUM 2l+1 LMDIM =     18
   total plane-waves  NPLWV = 729000
   max r-space proj   IRMAX =      1   max aug-charges    IRDMAX=  23711
   dimension x,y,z NGX =    90 NGY =   90 NGZ =   90
   dimension x,y,z NGXF=   180 NGYF=  180 NGZF=  180
   support grid    NGXF=   180 NGYF=  180 NGZF=  180
   ions per type =               8  17  32
 NGX,Y,Z   is equivalent  to a cutoff of  13.57, 13.57, 13.57 a.u.
 NGXF,Y,Z  is equivalent  to a cutoff of  27.15, 27.15, 27.15 a.u.


 I would recommend the setting:
   dimension x,y,z NGX =    88 NGY =   88 NGZ =   88
 SYSTEM =  CdIn2S4                                 
 POSCAR =  Cd In2 S4                               

 Startparameter for this run:
   NWRITE =      2    write-flag & timer
   PREC   = accura    normal or accurate (medium, high low for compatibility)
   ISTART =      0    job   : 0-new  1-cont  2-samecut
   ICHARG =      2    charge: 1-file 2-atom 10-const
   ISPIN  =      1    spin polarized calculation?
   LNONCOLLINEAR =      F non collinear calculations
   LSORBIT =      F    spin-orbit coupling
   INIWAV =      1    electr: 0-lowe 1-rand  2-diag
   LASPH  =      F    aspherical Exc in radial PAW
   METAGGA=      F    non-selfconsistent MetaGGA calc.

 Electronic Relaxation 1
   ENCUT  =  600.0 eV  44.10 Ry    6.64 a.u.  22.01 22.01 22.01*2*pi/ulx,y,z
   ENINI  =  600.0     initial cutoff
   ENAUG  =  456.1 eV  augmentation charge cutoff
   NELM   =     60;   NELMIN=  2; NELMDL= -5     # of ELM steps 
   EDIFF  = 0.1E-03   stopping-criterion for ELM
   LREAL  =      F    real-space projection
   NLSPLINE    = F    spline interpolate recip. space projectors
   LCOMPAT=      F    compatible to vasp.4.4
   GGA_COMPAT  = T    GGA compatible to vasp.4.4-vasp.4.6
   LMAXPAW     = -100 max onsite density
   LMAXMIX     =    2 max onsite mixed and CHGCAR
   VOSKOWN=      0    Vosko Wilk Nusair interpolation
   ROPT   =    0.00000   0.00000   0.00000
 Ionic relaxation
   EDIFFG = 0.1E-02   stopping-criterion for IOM
   NSW    =      0    number of steps for IOM
   NBLOCK =      1;   KBLOCK =      1    inner block; outer block 
   IBRION =     -1    ionic relax: 0-MD 1-quasi-New 2-CG
   NFREE  =      1    steps in history (QN), initial steepest desc. (CG)
   ISIF   =      0    stress and relaxation
   IWAVPR =     10    prediction:  0-non 1-charg 2-wave 3-comb
   ISYM   =      2    0-nonsym 1-usesym 2-fastsym
   LCORR  =      T    Harris-Foulkes like correction to forces

   POTIM  = 0.5000    time-step for ionic-motion
   TEIN   =    0.0    initial temperature
   TEBEG  =    0.0;   TEEND  =   0.0 temperature during run
   SMASS  =  -3.00    Nose mass-parameter (am)
   estimated Nose-frequenzy (Omega)   =  0.10E-29 period in steps =****** mass=  -0.278E-26a.u.
   SCALEE = 1.0000    scale energy and forces
   NPACO  =    256;   APACO  = 16.0  distance and # of slots for P.C.
   PSTRESS=    0.0 pullay stress

  Mass of Ions in am
   POMASS = 112.41114.82 32.07
  Ionic Valenz
   ZVAL   =  12.00 13.00  6.00
  Atomic Wigner-Seitz radii
   RWIGS  =  -1.00 -1.00 -1.00
  virtual crystal weights 
   VCA    =   1.00  1.00  1.00
   NELECT =     509.0000    total number of electrons
   NUPDOWN=      -1.0000    fix difference up-down

 DOS related values:
   EMIN   =  -5.00;   EMAX   = 10.00  energy-range for DOS
   EFERMI =   0.00
   ISMEAR =    -4;   SIGMA  =   0.20  broadening in eV -4-tet -1-fermi 0-gaus

 Electronic relaxation 2 (details)
   IALGO  =     38    algorithm
   LDIAG  =      T    sub-space diagonalisation (order eigenvalues)
   LSUBROT=      F    optimize rotation matrix (better conditioning)
   TURBO    =      0    0=normal 1=particle mesh
   IRESTART =      0    0=no restart 2=restart with 2 vectors
   NREBOOT  =      0    no. of reboots
   NMIN     =      0    reboot dimension
   EREF     =   0.00    reference energy to select bands
   IMIX   =      4    mixing-type and parameters
     AMIX     =   0.40;   BMIX     =  1.00
     AMIX_MAG =   1.60;   BMIX_MAG =  1.00
     AMIN     =   0.10
     WC   =   100.;   INIMIX=   1;  MIXPRE=   1;  MAXMIX= -45

 Intra band minimization:
   WEIMIN = 0.0000     energy-eigenvalue tresh-hold
   EBREAK =  0.81E-07  absolut break condition
   DEPER  =   0.30     relativ break condition  

   TIME   =   0.40     timestep for ELM

  volume/ion in A,a.u.               =      23.49       158.54
  Fermi-wavevector in a.u.,A,eV,Ry     =   1.185877  2.240983 19.133940  1.406305
  Thomas-Fermi vector in A             =   2.322062
 
 Write flags
   LWAVE  =      T    write WAVECAR
   LCHARG =      T    write CHGCAR
   LVTOT  =      F    write LOCPOT, total local potential
   LVHAR  =      F    write LOCPOT, Hartree potential only
   LELF   =      F    write electronic localiz. function (ELF)
   LORBIT =     11    0 simple, 1 ext, 2 COOP (PROOUT)


 Dipole corrections
   LMONO  =      F    monopole corrections only (constant potential shift)
   LDIPOL =      F    correct potential (dipole corrections)
   IDIPOL =      0    1-x, 2-y, 3-z, 4-all directions 
   EPSILON=  1.0000000 bulk dielectric constant

 Exchange correlation treatment:
   GGA     =    --    GGA type
   LEXCH   =     8    internal setting for exchange type
   VOSKOWN=      0    Vosko Wilk Nusair interpolation
   LHFCALC =     F    Hartree Fock is set to
   LHFONE  =     F    Hartree Fock one center treatment
   AEXX    =    0.0000 exact exchange contribution

 Linear response parameters
   LEPSILON=     F    determine dielectric tensor
   LRPA    =     F    only Hartree local field effects (RPA)
   LNABLA  =     F    use nabla operator in PAW spheres
   LVEL    =     F    velocity operator in full k-point grid
   LINTERFAST=   F  fast interpolation
   KINTER  =     0    interpolate to denser k-point grid
   CSHIFT  =0.1000    complex shift for real part using Kramers Kronig
   OMEGAMAX=  -1.0    maximum frequency
   DEG_THRESHOLD= 0.2000000E-02 threshold for treating states as degnerate
   RTIME   =    0.100 relaxation time in fs

 Orbital magnetization related:
   ORBITALMAG=     F  switch on orbital magnetization
   LCHIMAG   =     F  perturbation theory with respect to B field
   DQ        =  0.001000  dq finite difference perturbation B field



--------------------------------------------------------------------------------------------------------


 Static calculation
 charge density and potential will be updated during run
 non-spin polarized calculation
 Variant of blocked Davidson
 Davidson routine will perform the subspace rotation
 perform sub-space diagonalisation
    after iterative eigenvector-optimisation
 modified Broyden-mixing scheme, WC =      100.0
 initial mixing is a Kerker type mixing with AMIX =  0.4000 and BMIX =      1.0000
 Hartree-type preconditioning will be used
 using additional bands           53
 reciprocal scheme for non local part
 use partial core corrections
 calculate Harris-corrections to forces 
   (improved forces if not selfconsistent)
 use gradient corrections 
 use of overlap-Matrix (Vanderbilt PP)
 Fermi weights with tetrahedron method witout Bloechl corrections


--------------------------------------------------------------------------------------------------------


  energy-cutoff  :      600.00
  volume of cell :     1339.13
      direct lattice vectors                 reciprocal lattice vectors
    11.022353692  0.000000000  0.000000000     0.090724724  0.000000000  0.000000000
     0.000000000 11.022353692  0.000000000     0.000000000  0.090724724  0.000000000
     0.000000000  0.000000000 11.022353692     0.000000000  0.000000000  0.090724724

  length of vectors
    11.022353692 11.022353692 11.022353692     0.090724724  0.090724724  0.090724724


 
 k-points in units of 2pi/SCALE and weight: Automatic mesh                          
   0.00000000  0.00000000  0.00000000       0.037
   0.03024157  0.00000000  0.00000000       0.074
   0.00000000  0.03024157  0.00000000       0.074
   0.03024157  0.03024157  0.00000000       0.074
  -0.03024157  0.03024157  0.00000000       0.074
   0.00000000  0.00000000  0.03024157       0.074
   0.03024157  0.00000000  0.03024157       0.074
  -0.03024157  0.00000000  0.03024157       0.074
   0.00000000  0.03024157  0.03024157       0.074
   0.03024157  0.03024157  0.03024157       0.074
  -0.03024157  0.03024157  0.03024157       0.074
   0.00000000 -0.03024157  0.03024157       0.074
   0.03024157 -0.03024157  0.03024157       0.074
  -0.03024157 -0.03024157  0.03024157       0.074
 
 k-points in reciprocal lattice and weights: Automatic mesh                          
   0.00000000  0.00000000  0.00000000       0.037
   0.33333333  0.00000000  0.00000000       0.074
   0.00000000  0.33333333  0.00000000       0.074
   0.33333333  0.33333333  0.00000000       0.074
  -0.33333333  0.33333333  0.00000000       0.074
   0.00000000  0.00000000  0.33333333       0.074
   0.33333333  0.00000000  0.33333333       0.074
  -0.33333333  0.00000000  0.33333333       0.074
   0.00000000  0.33333333  0.33333333       0.074
   0.33333333  0.33333333  0.33333333       0.074
  -0.33333333  0.33333333  0.33333333       0.074
   0.00000000 -0.33333333  0.33333333       0.074
   0.33333333 -0.33333333  0.33333333       0.074
  -0.33333333 -0.33333333  0.33333333       0.074
 
 position of ions in fractional coordinates (direct lattice) 
   0.99975071  0.99689538  0.00025236
   0.99974626  0.49948102  0.50303328
   0.49698800  0.49949093  0.00027354
   0.52214065  0.02574690  0.47786501
   0.75049219  0.25031911  0.74633817
   0.25369118  0.25030854  0.24951643
   0.22578431  0.72802009  0.77417326
   0.75039187  0.75359492  0.24960426
   0.62757483  0.62210873  0.62483570
   0.37477808  0.87461791  0.12490775
   0.88525030  0.12826460  0.37150434
   0.12148511  0.36462897  0.87852316
   0.87514508  0.37489055  0.12485980
   0.37504904  0.12706057  0.87767246
   0.12255959  0.87475698  0.37254464
   0.62849448  0.12825628  0.11475209
   0.37469974  0.37479116  0.62531218
   0.86474137  0.62140043  0.87857952
   0.87506737  0.87468783  0.62518269
   0.37516043  0.62211212  0.37243871
   0.12142740  0.62139401  0.13525687
   0.62862347  0.38484653  0.37138026
   0.62745236  0.87474962  0.87743323
   0.12233263  0.12706405  0.62494743
   0.37613532  0.87277815  0.62381964
   0.38682676  0.38466511  0.38427569
   0.61396993  0.11337414  0.87863334
   0.11404877  0.87984831  0.62014476
   0.88101284  0.61434357  0.11900544
   0.13662184  0.63609649  0.37130625
   0.86502217  0.86299879  0.86627627
   0.63565009  0.36862062  0.13086409
   0.36979957  0.13618851  0.63019197
   0.64886570  0.14823662  0.35113612
   0.13368637  0.36469321  0.63691592
   0.36314033  0.63365439  0.13493484
   0.10113018  0.60103069  0.89887650
   0.61572660  0.88654646  0.11497182
   0.88487698  0.11558292  0.61325969
   0.37985322  0.87983191  0.88594475
   0.61386174  0.62071808  0.38614163
   0.11459549  0.38101993  0.11892984
   0.13649626  0.12855545  0.86349951
   0.86917111  0.36864696  0.36433541
   0.63638986  0.87018199  0.62970912
   0.62867385  0.63607723  0.86336291
   0.13372604  0.86299506  0.13498961
   0.12136662  0.11337509  0.38602190
   0.61572509  0.38466155  0.61316452
   0.88105451  0.38102613  0.88542072
   0.37953643  0.61380274  0.62045010
   0.37027872  0.87019090  0.36359743
   0.86897382  0.13527205  0.13104078
   0.86509664  0.63367281  0.63687820
   0.38673758  0.11557432  0.11512248
   0.88502109  0.88654896  0.38426830
   0.36310201  0.36470362  0.86632330
 
 position of ions in cartesian coordinates  (Angst):
  11.01960592 10.98813346  0.00278165
  11.01955693  5.50545651  5.54461078
   5.47797751  5.50556569  0.00301504
   5.75521887  0.28379144  5.26719719
   8.27219041  2.75910579  8.22640326
   2.79627396  2.75898930  2.75025834
   2.48867451  8.02449490  8.53321146
   8.27108458  8.30638970  2.75122640
   6.91735170  6.85710241  6.88716006
   4.13093652  9.64034792  1.37677738
   9.75754191  1.41377774  4.09485218
   1.33905180  4.01906943  9.68339300
   9.64615861  4.13217624  1.37624893
   4.13392316  1.40050655  9.67401633
   1.35089520  9.64188078  4.10631874
   6.92748842  1.41368610  1.26483809
   4.13007302  4.13108076  6.89241197
   9.53148528  6.84929537  9.68401422
   9.64530204  9.64111867  6.89098475
   4.13515093  6.85713987  4.10515123
   1.33841576  6.84922455  1.49084905
   6.92891027  4.24191458  4.09348458
   6.91600182  9.64179975  9.67137941
   1.34839355  1.40054491  6.88839159
   4.14589657  9.62006947  6.87596077
   4.26374141  4.23991486  4.23562254
   6.76739377  1.24964986  9.68460742
   1.25708592  9.69799925  6.83545493
   9.71083514  6.77151215  1.31172009
   1.50589429  7.01128053  4.09266877
   9.53458026  9.51227794  9.54840344
   7.00636012  4.06306684  1.44243032
   4.07606171  1.50111791  6.94619881
   7.15202719  1.63391644  3.87034654
   1.47353844  4.01977752  7.02031260
   4.00266115  6.98436282  1.48729953
   1.11469257  6.62477284  9.90773469
   6.78675638  9.77182861  1.26726011
   9.75342704  1.27399584  6.75956525
   4.18687659  9.69781852  9.76519637
   6.76620125  6.84177425  4.25618966
   1.26311207  4.19973645  1.31088672
   1.50451005  1.41698368  9.51779697
   9.58031135  4.06335717  4.01583376
   7.01451414  9.59145371  6.94087668
   6.92946555  7.01106820  9.51629137
   1.47397566  9.51223673  1.48790327
   1.33774579  1.24966031  4.25486996
   6.78673977  4.23987560  6.75851623
   9.71129441  4.19980476  9.75942031
   4.18338478  6.76555094  6.83882042
   4.08134299  9.59155193  4.00769948
   9.57813684  1.49101638  1.44437778
   9.53540110  6.98456583  7.01989674
   4.26275844  1.27390104  1.26892074
   9.75501545  9.77185617  4.23554107
   4.00223878  4.01989230  9.54892177
 


--------------------------------------------------------------------------------------------------------


 k-point  1 :   0.0000 0.0000 0.0000  plane waves:   44473
 k-point  2 :   0.3333 0.0000 0.0000  plane waves:   44660
 k-point  3 :   0.0000 0.3333 0.0000  plane waves:   44660
 k-point  4 :   0.3333 0.3333 0.0000  plane waves:   44717
 k-point  5 :  -0.3333 0.3333 0.0000  plane waves:   44717
 k-point  6 :   0.0000 0.0000 0.3333  plane waves:   44660
 k-point  7 :   0.3333 0.0000 0.3333  plane waves:   44717
 k-point  8 :  -0.3333 0.0000 0.3333  plane waves:   44717
 k-point  9 :   0.0000 0.3333 0.3333  plane waves:   44717
 k-point 10 :   0.3333 0.3333 0.3333  plane waves:   44681
 k-point 11 :  -0.3333 0.3333 0.3333  plane waves:   44681
 k-point 12 :   0.0000-0.3333 0.3333  plane waves:   44717
 k-point 13 :   0.3333-0.3333 0.3333  plane waves:   44681
 k-point 14 :  -0.3333-0.3333 0.3333  plane waves:   44681

 maximum and minimum number of plane-waves per node :     11234    11099

 maximum number of plane-waves:     44717
 maximum index in each direction: 
   IXMAX=   22   IYMAX=   22   IZMAX=   22
   IXMIN=  -22   IYMIN=  -22   IZMIN=  -22

 NGX is ok and might be reduce to  90
 NGY is ok and might be reduce to  90
 NGZ is ok and might be reduce to  90

 parallel 3D FFT for wavefunctions:
    minimum data exchange during FFTs selected (reduces bandwidth)
 parallel 3D FFT for charge:
    minimum data exchange during FFTs selected (reduces bandwidth)


 total amount of memory used by VASP on root node   355537. kBytes
========================================================================

   base      :      30000. kBytes
   nonl-proj :      77896. kBytes
   fftplans  :      18482. kBytes
   grid      :      32575. kBytes
   one-center:        233. kBytes
   wavefun   :     196351. kBytes
 
     INWAV:  cpu time    0.00: real time    0.00
 Broyden mixing: mesh for mixing (old mesh)
   NGX = 45   NGY = 45   NGZ = 45
  (NGX  =180   NGY  =180   NGZ  =180)
  gives a total of  91125 points

 initial charge density was supplied:
 charge density of overlapping atoms calculated
 number of electron     509.0000000 magnetization 
 keeping initial charge density in first step


--------------------------------------------------------------------------------------------------------


 Maximum index for augmentation-charges         2022 (set IRDMAX)


--------------------------------------------------------------------------------------------------------


 First call to EWALD:  gamma=   0.161
 Maximum number of real-space cells 3x 3x 3
 Maximum number of reciprocal cells 3x 3x 3

 FEWALD executed in parallel
    FEWALD:  cpu time    0.01: real time    0.01


----------------------------------------- Iteration    1(   1)  ---------------------------------------


    POTLOK:  cpu time    0.36: real time    0.38
    SETDIJ:  cpu time    0.02: real time    0.02
     EDDAV:  cpu time  117.96: real time  122.86
 BZINTS: Fermi energy: 33.795725;509.000000 electrons
         Band energy:4834.765766;  BLOECHL correction:  0.000000
       DOS:  cpu time    3.32: real time    3.33
    --------------------------------------------
      LOOP:  cpu time  121.67: real time  126.61

 eigenvalue-minimisations  :  8632
 total energy-change (2. order) : 0.6748468E+04  (-0.2293754E+05)
 number of electron     509.0000000 magnetization 
 augmentation part      509.0000000 magnetization 

 Free energy of the ion-electron system (eV)
  ---------------------------------------------------
  alpha Z        PSCENC =      1326.31949012
  Ewald energy   TEWEN  =    -33280.03470864
  -Hartree energ DENC   =    -13819.66519019
  -exchange      EXHF   =         0.00000000
  -V(xc)+E(xc)   XCENC  =      1146.69886399
  PAW double counting   =     40008.96445583   -39478.40375335
  entropy T*S    EENTRO =         0.00000000
  eigenvalues    EBANDS =      4834.76576561
  atomic energy  EATOM  =     46009.82289571
  ---------------------------------------------------
  free energy    TOTEN  =      6748.46781907 eV

  energy without entropy =     6748.46781907  energy(sigma->0) =     6748.46781907


--------------------------------------------------------------------------------------------------------




----------------------------------------- Iteration    1(   2)  ---------------------------------------


     EDDAV:  cpu time  117.92: real time  122.85
 BZINTS: Fermi energy: 12.954177;509.000000 electrons
         Band energy:-724.311930;  BLOECHL correction:  0.000000
       DOS:  cpu time    0.47: real time    0.48
    --------------------------------------------
      LOOP:  cpu time  118.42: real time  123.38

 eigenvalue-minimisations  :  8624
 total energy-change (2. order) :-0.5559078E+04  (-0.5408934E+04)
 number of electron     509.0000000 magnetization 
 augmentation part      509.0000000 magnetization 

 Free energy of the ion-electron system (eV)
  ---------------------------------------------------
  alpha Z        PSCENC =      1326.31949012
  Ewald energy   TEWEN  =    -33280.03470864
  -Hartree energ DENC   =    -13819.66519019
  -exchange      EXHF   =         0.00000000
  -V(xc)+E(xc)   XCENC  =      1146.69886399
  PAW double counting   =     40008.96445583   -39478.40375335
  entropy T*S    EENTRO =         0.00000000
  eigenvalues    EBANDS =      -724.31193026
  atomic energy  EATOM  =     46009.82289571
  ---------------------------------------------------
  free energy    TOTEN  =      1189.39012321 eV

  energy without entropy =     1189.39012321  energy(sigma->0) =     1189.39012321


--------------------------------------------------------------------------------------------------------




----------------------------------------- Iteration    1(   3)  ---------------------------------------


     EDDAV:  cpu time  125.21: real time  130.42
 BZINTS: Fermi energy:  6.608273;509.000000 electrons
         Band energy:***********;  BLOECHL correction:  0.000000
       DOS:  cpu time    0.04: real time    0.04
    --------------------------------------------
      LOOP:  cpu time  125.27: real time  130.52

 eigenvalue-minimisations  :  9368
 total energy-change (2. order) :-0.1245304E+04  (-0.1159802E+04)
 number of electron     509.0000000 magnetization 
 augmentation part      509.0000000 magnetization 

 Free energy of the ion-electron system (eV)
  ---------------------------------------------------
  alpha Z        PSCENC =      1326.31949012
  Ewald energy   TEWEN  =    -33280.03470864
  -Hartree energ DENC   =    -13819.66519019
  -exchange      EXHF   =         0.00000000
  -V(xc)+E(xc)   XCENC  =      1146.69886399
  PAW double counting   =     40008.96445583   -39478.40375335
  entropy T*S    EENTRO =         0.00000000
  eigenvalues    EBANDS =     -1969.61568123
  atomic energy  EATOM  =     46009.82289571
  ---------------------------------------------------
  free energy    TOTEN  =       -55.91362777 eV

  energy without entropy =      -55.91362777  energy(sigma->0) =      -55.91362777


--------------------------------------------------------------------------------------------------------




----------------------------------------- Iteration    1(   4)  ---------------------------------------


     EDDAV:  cpu time  144.34: real time  150.31
 BZINTS: Fermi energy:  5.562305;509.000000 electrons
         Band energy:***********;  BLOECHL correction:  0.000000
       DOS:  cpu time    0.05: real time    0.05
    --------------------------------------------
      LOOP:  cpu time  144.39: real time  150.40

 eigenvalue-minimisations  : 11280
 total energy-change (2. order) :-0.1647383E+03  (-0.1608352E+03)
 number of electron     509.0000000 magnetization 
 augmentation part      509.0000000 magnetization 

 Free energy of the ion-electron system (eV)
  ---------------------------------------------------
  alpha Z        PSCENC =      1326.31949012
  Ewald energy   TEWEN  =    -33280.03470864
  -Hartree energ DENC   =    -13819.66519019
  -exchange      EXHF   =         0.00000000
  -V(xc)+E(xc)   XCENC  =      1146.69886399
  PAW double counting   =     40008.96445583   -39478.40375335
  entropy T*S    EENTRO =         0.00000000
  eigenvalues    EBANDS =     -2134.35400141
  atomic energy  EATOM  =     46009.82289571
  ---------------------------------------------------
  free energy    TOTEN  =      -220.65194795 eV

  energy without entropy =     -220.65194795  energy(sigma->0) =     -220.65194795


--------------------------------------------------------------------------------------------------------




----------------------------------------- Iteration    1(   5)  ---------------------------------------


     EDDAV:  cpu time  135.32: real time  140.90
 BZINTS: Fermi energy:  5.414981;509.000000 electrons
         Band energy:***********;  BLOECHL correction:  0.000000
       DOS:  cpu time    0.05: real time    0.05
    CHARGE:  cpu time    4.57: real time    4.59
    MIXING:  cpu time    0.01: real time    0.01
    --------------------------------------------
      LOOP:  cpu time  139.96: real time  145.58

 eigenvalue-minimisations  : 10384
 total energy-change (2. order) :-0.6378326E+01  (-0.6280104E+01)
 number of electron     508.9999986 magnetization 
 augmentation part      138.7269827 magnetization 

 Broyden mixing:
  rms(total) = 0.42534E+01    rms(broyden)= 0.42534E+01
  rms(prec ) = 0.45935E+01
  weight for this iteration     100.00

 Free energy of the ion-electron system (eV)
  ---------------------------------------------------
  alpha Z        PSCENC =      1326.31949012
  Ewald energy   TEWEN  =    -33280.03470864
  -Hartree energ DENC   =    -13819.66519019
  -exchange      EXHF   =         0.00000000
  -V(xc)+E(xc)   XCENC  =      1146.69886399
  PAW double counting   =     40008.96445583   -39478.40375335
  entropy T*S    EENTRO =         0.00000000
  eigenvalues    EBANDS =     -2140.73232733
  atomic energy  EATOM  =     46009.82289571
  ---------------------------------------------------
  free energy    TOTEN  =      -227.03027387 eV

  energy without entropy =     -227.03027387  energy(sigma->0) =     -227.03027387


--------------------------------------------------------------------------------------------------------




----------------------------------------- Iteration    1(   6)  ---------------------------------------


    POTLOK:  cpu time    0.36: real time    0.38
    SETDIJ:  cpu time    0.02: real time    0.02
     EDDAV:  cpu time  144.91: real time  150.89
 BZINTS: Fermi energy:  5.542807;509.000000 electrons
         Band energy:***********;  BLOECHL correction:  0.000000
       DOS:  cpu time    0.05: real time    0.05
    CHARGE:  cpu time    4.56: real time    4.57
    MIXING:  cpu time    0.01: real time    0.01
    --------------------------------------------
      LOOP:  cpu time  149.91: real time  155.95

 eigenvalue-minimisations  : 11344
 total energy-change (2. order) : 0.1409646E+02  (-0.2522239E+01)
 number of electron     508.9999987 magnetization 
 augmentation part      140.0023939 magnetization 

 Broyden mixing:
  rms(total) = 0.26979E+01    rms(broyden)= 0.26979E+01
  rms(prec ) = 0.27752E+01
  weight for this iteration     100.00

 eigenvalues of (default mixing * dielectric matrix)
  average eigenvalue GAMMA=   1.7973
  1.7973

 Free energy of the ion-electron system (eV)
  ---------------------------------------------------
  alpha Z        PSCENC =      1326.31949012
  Ewald energy   TEWEN  =    -33280.03470864
  -Hartree energ DENC   =    -13748.60062597
  -exchange      EXHF   =         0.00000000
  -V(xc)+E(xc)   XCENC  =      1151.36943756
  PAW double counting   =     48881.19845697   -48322.18327423
  entropy T*S    EENTRO =         0.00000000
  eigenvalues    EBANDS =     -2230.82548688
  atomic energy  EATOM  =     46009.82289571
  ---------------------------------------------------
  free energy    TOTEN  =      -212.93381537 eV

  energy without entropy =     -212.93381537  energy(sigma->0) =     -212.93381537


--------------------------------------------------------------------------------------------------------




----------------------------------------- Iteration    1(   7)  ---------------------------------------


    POTLOK:  cpu time    0.36: real time    0.38
    SETDIJ:  cpu time    0.02: real time    0.02
     EDDAV:  cpu time  146.55: real time  152.55
 BZINTS: Fermi energy:  5.638450;509.000000 electrons
         Band energy:***********;  BLOECHL correction:  0.000000
       DOS:  cpu time    0.05: real time    0.05
    CHARGE:  cpu time    4.60: real time    4.62
    MIXING:  cpu time    0.00: real time    0.01
    --------------------------------------------
      LOOP:  cpu time  151.60: real time  157.67

 eigenvalue-minimisations  : 11496
 total energy-change (2. order) : 0.1996810E-01  (-0.2176301E+01)
 number of electron     508.9999987 magnetization 
 augmentation part      140.9713905 magnetization 

 Broyden mixing:
  rms(total) = 0.94518E+00    rms(broyden)= 0.94518E+00
  rms(prec ) = 0.98953E+00
  weight for this iteration     100.00

 eigenvalues of (default mixing * dielectric matrix)
  average eigenvalue GAMMA=   1.6724
  1.2889  2.0559

 Free energy of the ion-electron system (eV)
  ---------------------------------------------------
  alpha Z        PSCENC =      1326.31949012
  Ewald energy   TEWEN  =    -33280.03470864
  -Hartree energ DENC   =    -13747.41831866
  -exchange      EXHF   =         0.00000000
  -V(xc)+E(xc)   XCENC  =      1156.27609713
  PAW double counting   =     59058.99602306   -58493.07337937
  entropy T*S    EENTRO =         0.00000000
  eigenvalues    EBANDS =     -2243.80194662
  atomic energy  EATOM  =     46009.82289571
  ---------------------------------------------------
  free energy    TOTEN  =      -212.91384727 eV

  energy without entropy =     -212.91384727  energy(sigma->0) =     -212.91384727


--------------------------------------------------------------------------------------------------------




----------------------------------------- Iteration    1(   8)  ---------------------------------------


    POTLOK:  cpu time    0.36: real time    0.38
    SETDIJ:  cpu time    0.02: real time    0.02
     EDDAV:  cpu time  145.77: real time  151.77
 BZINTS: Fermi energy:  5.618452;509.000000 electrons
         Band energy:***********;  BLOECHL correction:  0.000000
       DOS:  cpu time    0.05: real time    0.05
    CHARGE:  cpu time    4.56: real time    4.58
    MIXING:  cpu time    0.01: real time    0.01
    --------------------------------------------
      LOOP:  cpu time  150.78: real time  156.84

 eigenvalue-minimisations  : 11448
 total energy-change (2. order) : 0.1662322E+00  (-0.3629156E+00)
 number of electron     508.9999987 magnetization 
 augmentation part      140.4414143 magnetization 

 Broyden mixing:
  rms(total) = 0.42789E+00    rms(broyden)= 0.42789E+00
  rms(prec ) = 0.43922E+00
  weight for this iteration     100.00

 eigenvalues of (default mixing * dielectric matrix)
  average eigenvalue GAMMA=   1.3951
  2.1882  0.9985  0.9985

 Free energy of the ion-electron system (eV)
  ---------------------------------------------------
  alpha Z        PSCENC =      1326.31949012
  Ewald energy   TEWEN  =    -33280.03470864
  -Hartree energ DENC   =    -13770.31846012
  -exchange      EXHF   =         0.00000000
  -V(xc)+E(xc)   XCENC  =      1156.43943985
  PAW double counting   =     62414.02080835   -61856.07223582
  entropy T*S    EENTRO =         0.00000000
  eigenvalues    EBANDS =     -2212.92484455
  atomic energy  EATOM  =     46009.82289571
  ---------------------------------------------------
  free energy    TOTEN  =      -212.74761510 eV

  energy without entropy =     -212.74761510  energy(sigma->0) =     -212.74761510


--------------------------------------------------------------------------------------------------------




----------------------------------------- Iteration    1(   9)  ---------------------------------------


    POTLOK:  cpu time    0.36: real time    0.38
    SETDIJ:  cpu time    0.02: real time    0.02
     EDDAV:  cpu time  148.44: real time  154.57
 BZINTS: Fermi energy:  5.622782;509.000000 electrons
         Band energy:***********;  BLOECHL correction:  0.000000
       DOS:  cpu time    0.05: real time    0.05
    CHARGE:  cpu time    4.58: real time    4.59
    MIXING:  cpu time    0.01: real time    0.01
    --------------------------------------------
      LOOP:  cpu time  153.46: real time  159.66

 eigenvalue-minimisations  : 11728
 total energy-change (2. order) : 0.1137222E-01  (-0.2392145E-01)
 number of electron     508.9999987 magnetization 
 augmentation part      140.5176347 magnetization 

 Broyden mixing:
  rms(total) = 0.16781E+00    rms(broyden)= 0.16781E+00
  rms(prec ) = 0.17268E+00
  weight for this iteration     100.00

 eigenvalues of (default mixing * dielectric matrix)
  average eigenvalue GAMMA=   1.4553
  1.8863  1.8863  1.0243  1.0243

 Free energy of the ion-electron system (eV)
  ---------------------------------------------------
  alpha Z        PSCENC =      1326.31949012
  Ewald energy   TEWEN  =    -33280.03470864
  -Hartree energ DENC   =    -13761.11973898
  -exchange      EXHF   =         0.00000000
  -V(xc)+E(xc)   XCENC  =      1156.65570246
  PAW double counting   =     63252.74496355   -62692.58218502
  entropy T*S    EENTRO =         0.00000000
  eigenvalues    EBANDS =     -2224.54266209
  atomic energy  EATOM  =     46009.82289571
  ---------------------------------------------------
  free energy    TOTEN  =      -212.73624289 eV

  energy without entropy =     -212.73624289  energy(sigma->0) =     -212.73624289


--------------------------------------------------------------------------------------------------------




----------------------------------------- Iteration    1(  10)  ---------------------------------------


    POTLOK:  cpu time    0.36: real time    0.38
    SETDIJ:  cpu time    0.02: real time    0.02
     EDDAV:  cpu time  143.75: real time  149.69
 BZINTS: Fermi energy:  5.624007;509.000000 electrons
         Band energy:***********;  BLOECHL correction:  0.000000
       DOS:  cpu time    0.06: real time    0.05
    CHARGE:  cpu time    4.56: real time    4.58
    MIXING:  cpu time    0.01: real time    0.01
    --------------------------------------------
      LOOP:  cpu time  148.76: real time  154.76

 eigenvalue-minimisations  : 11232
 total energy-change (2. order) :-0.4876066E-02  (-0.3152021E-02)
 number of electron     508.9999987 magnetization 
 augmentation part      140.5397777 magnetization 

 Broyden mixing:
  rms(total) = 0.11429E+00    rms(broyden)= 0.11429E+00
  rms(prec ) = 0.11666E+00
  weight for this iteration     100.00

 eigenvalues of (default mixing * dielectric matrix)
  average eigenvalue GAMMA=   1.6461
  2.5649  2.5649  1.1534  1.1534  0.7937

 Free energy of the ion-electron system (eV)
  ---------------------------------------------------
  alpha Z        PSCENC =      1326.31949012
  Ewald energy   TEWEN  =    -33280.03470864
  -Hartree energ DENC   =    -13759.06322049
  -exchange      EXHF   =         0.00000000
  -V(xc)+E(xc)   XCENC  =      1156.68756491
  PAW double counting   =     63075.25143224   -62514.55599528
  entropy T*S    EENTRO =         0.00000000
  eigenvalues    EBANDS =     -2227.16857753
  atomic energy  EATOM  =     46009.82289571
  ---------------------------------------------------
  free energy    TOTEN  =      -212.74111895 eV

  energy without entropy =     -212.74111895  energy(sigma->0) =     -212.74111895


--------------------------------------------------------------------------------------------------------




----------------------------------------- Iteration    1(  11)  ---------------------------------------


    POTLOK:  cpu time    0.36: real time    0.38
    SETDIJ:  cpu time    0.02: real time    0.02
     EDDAV:  cpu time  144.98: real time  150.99
 BZINTS: Fermi energy:  5.627409;509.000000 electrons
         Band energy:***********;  BLOECHL correction:  0.000000
       DOS:  cpu time    0.05: real time    0.05
    CHARGE:  cpu time    4.59: real time    4.61
    MIXING:  cpu time    0.01: real time    0.01
    --------------------------------------------
      LOOP:  cpu time  150.01: real time  156.11

 eigenvalue-minimisations  : 11376
 total energy-change (2. order) :-0.4919039E-02  (-0.1077410E-02)
 number of electron     508.9999987 magnetization 
 augmentation part      140.5148118 magnetization 

 Broyden mixing:
  rms(total) = 0.26113E-01    rms(broyden)= 0.26113E-01
  rms(prec ) = 0.32666E-01
  weight for this iteration     100.00

 eigenvalues of (default mixing * dielectric matrix)
  average eigenvalue GAMMA=   1.5096
  2.4830  2.4830  1.1499  1.1499  0.8959  0.8959

 Free energy of the ion-electron system (eV)
  ---------------------------------------------------
  alpha Z        PSCENC =      1326.31949012
  Ewald energy   TEWEN  =    -33280.03470864
  -Hartree energ DENC   =    -13761.17787971
  -exchange      EXHF   =         0.00000000
  -V(xc)+E(xc)   XCENC  =      1156.84511554
  PAW double counting   =     62925.01976331   -62364.33305930
  entropy T*S    EENTRO =         0.00000000
  eigenvalues    EBANDS =     -2225.20765502
  atomic energy  EATOM  =     46009.82289571
  ---------------------------------------------------
  free energy    TOTEN  =      -212.74603799 eV

  energy without entropy =     -212.74603799  energy(sigma->0) =     -212.74603799


--------------------------------------------------------------------------------------------------------




----------------------------------------- Iteration    1(  12)  ---------------------------------------


    POTLOK:  cpu time    0.36: real time    0.38
    SETDIJ:  cpu time    0.02: real time    0.02
     EDDAV:  cpu time  143.19: real time  149.05
 BZINTS: Fermi energy:  5.629865;509.000000 electrons
         Band energy:***********;  BLOECHL correction:  0.000000
       DOS:  cpu time    0.05: real time    0.05
    CHARGE:  cpu time    4.60: real time    4.62
    MIXING:  cpu time    0.01: real time    0.01
    --------------------------------------------
      LOOP:  cpu time  148.23: real time  154.16

 eigenvalue-minimisations  : 11184
 total energy-change (2. order) : 0.1838490E-02  (-0.5566335E-03)
 number of electron     508.9999987 magnetization 
 augmentation part      140.5341993 magnetization 

 Broyden mixing:
  rms(total) = 0.12120E-01    rms(broyden)= 0.12120E-01
  rms(prec ) = 0.12853E-01
  weight for this iteration     100.00

 eigenvalues of (default mixing * dielectric matrix)
  average eigenvalue GAMMA=   1.5250
  2.3807  2.3807  1.5188  1.5188  1.0440  1.0440  0.7877

 Free energy of the ion-electron system (eV)
  ---------------------------------------------------
  alpha Z        PSCENC =      1326.31949012
  Ewald energy   TEWEN  =    -33280.03470864
  -Hartree energ DENC   =    -13760.86009442
  -exchange      EXHF   =         0.00000000
  -V(xc)+E(xc)   XCENC  =      1156.91750865
  PAW double counting   =     62942.36643005   -62381.31825493
  entropy T*S    EENTRO =         0.00000000
  eigenvalues    EBANDS =     -2225.95746605
  atomic energy  EATOM  =     46009.82289571
  ---------------------------------------------------
  free energy    TOTEN  =      -212.74419950 eV

  energy without entropy =     -212.74419950  energy(sigma->0) =     -212.74419950


--------------------------------------------------------------------------------------------------------




----------------------------------------- Iteration    1(  13)  ---------------------------------------


    POTLOK:  cpu time    0.36: real time    0.38
    SETDIJ:  cpu time    0.02: real time    0.02
     EDDAV:  cpu time  119.08: real time  124.08
 BZINTS: Fermi energy:  5.630552;509.000000 electrons
         Band energy:***********;  BLOECHL correction:  0.000000
       DOS:  cpu time    0.06: real time    0.05
    CHARGE:  cpu time    4.60: real time    4.62
    MIXING:  cpu time    0.01: real time    0.01
    --------------------------------------------
      LOOP:  cpu time  124.14: real time  129.20

 eigenvalue-minimisations  :  8768
 total energy-change (2. order) :-0.1497720E-03  (-0.1183580E-03)
 number of electron     508.9999987 magnetization 
 augmentation part      140.5408289 magnetization 

 Broyden mixing:
  rms(total) = 0.73933E-02    rms(broyden)= 0.73933E-02
  rms(prec ) = 0.76018E-02
  weight for this iteration     100.00

 eigenvalues of (default mixing * dielectric matrix)
  average eigenvalue GAMMA=   1.5273
  2.5217  2.5217  1.5419  1.5419  1.2269  0.8318  1.0163  1.0163

 Free energy of the ion-electron system (eV)
  ---------------------------------------------------
  alpha Z        PSCENC =      1326.31949012
  Ewald energy   TEWEN  =    -33280.03470864
  -Hartree energ DENC   =    -13761.05973265
  -exchange      EXHF   =         0.00000000
  -V(xc)+E(xc)   XCENC  =      1156.93938000
  PAW double counting   =     62964.69234259   -62403.63806635
  entropy T*S    EENTRO =         0.00000000
  eigenvalues    EBANDS =     -2225.78595006
  atomic energy  EATOM  =     46009.82289571
  ---------------------------------------------------
  free energy    TOTEN  =      -212.74434927 eV

  energy without entropy =     -212.74434927  energy(sigma->0) =     -212.74434927


--------------------------------------------------------------------------------------------------------




----------------------------------------- Iteration    1(  14)  ---------------------------------------


    POTLOK:  cpu time    0.36: real time    0.38
    SETDIJ:  cpu time    0.02: real time    0.02
     EDDAV:  cpu time   86.67: real time   90.39
 BZINTS: Fermi energy:  5.631042;509.000000 electrons
         Band energy:***********;  BLOECHL correction:  0.000000
       DOS:  cpu time    0.05: real time    0.05
    --------------------------------------------
      LOOP:  cpu time   87.10: real time   90.88

 eigenvalue-minimisations  :  5520
 total energy-change (2. order) :-0.4610857E-04  (-0.6391492E-05)
 number of electron     508.9999987 magnetization 
 augmentation part      140.5408289 magnetization 

 Free energy of the ion-electron system (eV)
  ---------------------------------------------------
  alpha Z        PSCENC =      1326.31949012
  Ewald energy   TEWEN  =    -33280.03470864
  -Hartree energ DENC   =    -13761.24211773
  -exchange      EXHF   =         0.00000000
  -V(xc)+E(xc)   XCENC  =      1156.95525730
  PAW double counting   =     62952.23900770   -62391.15966989
  entropy T*S    EENTRO =         0.00000000
  eigenvalues    EBANDS =     -2225.64454995
  atomic energy  EATOM  =     46009.82289571
  ---------------------------------------------------
  free energy    TOTEN  =      -212.74439538 eV

  energy without entropy =     -212.74439538  energy(sigma->0) =     -212.74439538


--------------------------------------------------------------------------------------------------------




 average (electrostatic) potential at core
  the test charge radii are     1.0698  1.0774  0.9698
  (the norm of the test charge is              1.0000)
       1 -37.0275       2 -37.0277       3 -37.0278       4 -37.3578       5 -37.0288
       6 -37.0285       7 -37.3573       8 -37.0275       9 -96.6967      10 -96.5800
      11 -96.6506      12 -96.6511      13 -96.6089      14 -96.6956      15 -96.6975
      16 -96.6504      17 -96.5818      18 -96.6486      19 -96.5801      20 -96.6966
      21 -96.6488      22 -96.6541      23 -96.6974      24 -96.6958      25 -96.2491
      26 -86.6985      27 -86.8159      28 -86.8196      29 -86.6689      30 -86.8238
      31 -86.6937      32 -86.6732      33 -86.8204      34 -86.8935      35 -86.6938
      36 -86.6949      37 -86.8874      38 -86.6962      39 -86.6981      40 -86.8192
      41 -86.8232      42 -86.6711      43 -86.8219      44 -86.6729      45 -86.8040
      46 -86.8239      47 -86.6941      48 -86.8159      49 -86.6988      50 -86.6714
      51 -86.8113      52 -86.8038      53 -86.6701      54 -86.6942      55 -86.6972
      56 -86.6966      57 -86.6934
 
 
 
 E-fermi :   5.6310     XC(G=0):  -9.4878     alpha+bet :-10.0605


 k-point     1 :       0.0000    0.0000    0.0000
  band No.  band energies     occupation 
      1     -10.4286      2.00000
      2     -10.3468      2.00000
      3     -10.3465      2.00000
      4     -10.3084      2.00000
      5     -10.3083      2.00000
      6     -10.3003      2.00000
      7     -10.2428      2.00000
      8     -10.2419      2.00000
      9     -10.2352      2.00000
     10     -10.2062      2.00000
     11     -10.2045      2.00000
     12     -10.2039      2.00000
     13     -10.2035      2.00000
     14     -10.2032      2.00000
     15     -10.1858      2.00000
     16     -10.0670      2.00000
     17     -10.0632      2.00000
     18     -10.0630      2.00000
     19     -10.0538      2.00000
     20     -10.0433      2.00000
     21     -10.0432      2.00000
     22     -10.0038      2.00000
     23      -9.9862      2.00000
     24      -9.9855      2.00000
     25      -9.9647      2.00000
     26      -9.9565      2.00000
     27      -9.9556      2.00000
     28      -9.9348      2.00000
     29      -9.9344      2.00000
     30      -9.9334      2.00000
     31      -9.9254      2.00000
     32      -9.9247      2.00000
     33      -9.9145      2.00000
     34      -9.9101      2.00000
     35      -9.9099      2.00000
     36      -9.9097      2.00000
     37      -9.9026      2.00000
     38      -9.9021      2.00000
     39      -9.9005      2.00000
     40      -9.8959      2.00000
     41      -9.8914      2.00000
     42      -9.8910      2.00000
     43      -9.8905      2.00000
     44      -9.8878      2.00000
     45      -9.8874      2.00000
     46      -9.8803      2.00000
     47      -9.8743      2.00000
     48      -9.8743      2.00000
     49      -9.8696      2.00000
     50      -9.8690      2.00000
     51      -9.8665      2.00000
     52      -9.8626      2.00000
     53      -9.8500      2.00000
     54      -9.8500      2.00000
     55      -9.8495      2.00000
     56      -9.8444      2.00000
     57      -9.8442      2.00000
     58      -9.8415      2.00000
     59      -9.8406      2.00000
     60      -9.8404      2.00000
     61      -9.8326      2.00000
     62      -9.8311      2.00000
     63      -9.8255      2.00000
     64      -9.8247      2.00000
     65      -9.8185      2.00000
     66      -9.8179      2.00000
     67      -9.8117      2.00000
     68      -9.8011      2.00000
     69      -9.8008      2.00000
     70      -9.7866      2.00000
     71      -9.7859      2.00000
     72      -9.7758      2.00000
     73      -9.7749      2.00000
     74      -9.7707      2.00000
     75      -9.7704      2.00000
     76      -9.7612      2.00000
     77      -9.7608      2.00000
     78      -9.7556      2.00000
     79      -9.7507      2.00000
     80      -9.7500      2.00000
     81      -9.6178      2.00000
     82      -9.6004      2.00000
     83      -9.5993      2.00000
     84      -9.4432      2.00000
     85      -9.4429      2.00000
     86      -9.1102      2.00000
     87      -8.6817      2.00000
     88      -8.6742      2.00000
     89      -8.6084      2.00000
     90      -8.6066      2.00000
     91      -8.5432      2.00000
     92      -8.5417      2.00000
     93      -8.2014      2.00000
     94      -7.9973      2.00000
     95      -7.9457      2.00000
     96      -7.9433      2.00000
     97      -7.9422      2.00000
     98      -7.8481      2.00000
     99      -7.8471      2.00000
    100      -7.8268      2.00000
    101      -7.8258      2.00000
    102      -7.7994      2.00000
    103      -7.7693      2.00000
    104      -7.7159      2.00000
    105      -7.6009      2.00000
    106      -7.6004      2.00000
    107      -7.5932      2.00000
    108      -7.5924      2.00000
    109      -7.2984      2.00000
    110      -7.2408      2.00000
    111      -7.2398      2.00000
    112      -7.1979      2.00000
    113      -7.1767      2.00000
    114      -7.1655      2.00000
    115      -7.1648      2.00000
    116      -7.0975      2.00000
    117      -7.0959      2.00000
    118      -4.2523      2.00000
    119      -4.2458      2.00000
    120      -4.0943      2.00000
    121      -4.0929      2.00000
    122      -4.0720      2.00000
    123      -4.0708      2.00000
    124      -3.9667      2.00000
    125      -3.9666      2.00000
    126      -3.9495      2.00000
    127      -3.9493      2.00000
    128      -3.8506      2.00000
    129      -3.8329      2.00000
    130      -3.8327      2.00000
    131      -3.8203      2.00000
    132      -3.8198      2.00000
    133      -3.7883      2.00000
    134      -3.7772      2.00000
    135      -3.7380      2.00000
    136      -3.7378      2.00000
    137      -3.7275      2.00000
    138      -3.7270      2.00000
    139      -3.7038      2.00000
    140      -3.7002      2.00000
    141      -3.7001      2.00000
    142      -3.6840      2.00000
    143      -3.6831      2.00000
    144      -3.6816      2.00000
    145      -3.6812      2.00000
    146      -3.6810      2.00000
    147      -3.6805      2.00000
    148      -3.6803      2.00000
    149      -3.6799      2.00000
    150      -3.6782      2.00000
    151      -3.6668      2.00000
    152      -3.6668      2.00000
    153      -3.6627      2.00000
    154      -3.6625      2.00000
    155      -3.6625      2.00000
    156      -3.6621      2.00000
    157      -3.6470      2.00000
    158      -2.1280      2.00000
    159      -1.7645      2.00000
    160      -1.7127      2.00000
    161      -1.7119      2.00000
    162      -1.2932      2.00000
    163      -1.2927      2.00000
    164      -1.2551      2.00000
    165      -1.2548      2.00000
    166      -1.2370      2.00000
    167      -1.2189      2.00000
    168      -1.1909      2.00000
    169      -1.0815      2.00000
    170      -0.8930      2.00000
    171      -0.8921      2.00000
    172      -0.8452      2.00000
    173      -0.8440      2.00000
    174      -0.8143      2.00000
    175      -0.2129      2.00000
    176      -0.0999      2.00000
    177      -0.0990      2.00000
    178       0.0082      2.00000
    179       0.0559      2.00000
    180       0.0563      2.00000
    181       0.0828      2.00000
    182       0.0829      2.00000
    183       0.1990      2.00000
    184       0.6034      2.00000
    185       0.6039      2.00000
    186       0.7108      2.00000
    187       0.7450      2.00000
    188       0.7455      2.00000
    189       0.8078      2.00000
    190       0.8928      2.00000
    191       0.9912      2.00000
    192       0.9914      2.00000
    193       1.0610      2.00000
    194       1.0622      2.00000
    195       1.1414      2.00000
    196       1.1427      2.00000
    197       1.1606      2.00000
    198       1.2212      2.00000
    199       1.3350      2.00000
    200       1.3369      2.00000
    201       1.3431      2.00000
    202       1.3448      2.00000
    203       1.3462      2.00000
    204       1.3841      2.00000
    205       1.3870      2.00000
    206       1.3876      2.00000
    207       1.4080      2.00000
    208       1.4322      2.00000
    209       1.4324      2.00000
    210       1.4672      2.00000
    211       1.8339      2.00000
    212       1.8344      2.00000
    213       1.8929      2.00000
    214       1.9243      2.00000
    215       1.9255      2.00000
    216       1.9530      2.00000
    217       1.9536      2.00000
    218       2.0378      2.00000
    219       2.1970      2.00000
    220       2.2433      2.00000
    221       2.2436      2.00000
    222       2.2541      2.00000
    223       2.3273      2.00000
    224       2.3290      2.00000
    225       2.4749      2.00000
    226       2.5045      2.00000
    227       2.5052      2.00000
    228       2.5747      2.00000
    229       2.5757      2.00000
    230       2.6380      2.00000
    231       2.9542      2.00000
    232       3.0178      2.00000
    233       3.0205      2.00000
    234       3.0434      2.00000
    235       3.1084      2.00000
    236       3.1088      2.00000
    237       3.1155      2.00000
    238       3.1162      2.00000
    239       3.1527      2.00000
    240       3.1532      2.00000
    241       3.1726      2.00000
    242       3.1923      2.00000
    243       3.2498      2.00000
    244       3.2517      2.00000
    245       3.2865      2.00000
    246       3.2867      2.00000
    247       3.3264      2.00000
    248       3.3270      2.00000
    249       3.3409      2.00000
    250       3.3974      2.00000
    251       3.4145      2.00000
    252       3.4403      2.00000
    253       3.4405      2.00000
    254       4.0864      2.00000
    255       4.7128      1.98371
    256       5.4160      0.97466
    257       5.4186      0.58951
    258       5.6441      0.00000
    259       6.2864      0.00000
    260       6.4835      0.00000
    261       6.4853      0.00000
    262       6.5842      0.00000
    263       6.6252      0.00000
    264       6.6271      0.00000
    265       6.6286      0.00000
    266       6.7836      0.00000
    267       6.9245      0.00000
    268       6.9265      0.00000
    269       6.9419      0.00000
    270       6.9442      0.00000
    271       7.2394      0.00000
    272       7.2676      0.00000
    273       7.4194      0.00000
    274       7.5060      0.00000
    275       7.5065      0.00000
    276       7.7544      0.00000
    277       7.8372      0.00000
    278       7.9944      0.00000
    279       7.9950      0.00000
    280       8.0248      0.00000
    281       8.0255      0.00000
    282       8.3309      0.00000
    283       8.5257      0.00000
    284       8.5268      0.00000
    285       8.7920      0.00000
    286       8.7950      0.00000
    287       8.8875      0.00000
    288       8.8912      0.00000
    289       9.0876      0.00000
    290       9.0879      0.00000
    291       9.0919      0.00000
    292       9.1135      0.00000
    293       9.1561      0.00000
    294       9.1885      0.00000
    295       9.3562      0.00000
    296       9.3579      0.00000
    297       9.6324      0.00000
    298       9.6351      0.00000
    299       9.7156      0.00000
    300       9.7193      0.00000
    301       9.9675      0.00000
    302       9.9740      0.00000
    303      10.0709      0.00000
    304      10.0754      0.00000
    305      10.0995      0.00000
    306      10.1864      0.00000
    307      10.3026      0.00000
    308      10.3525      0.00000

 k-point     2 :       0.3333    0.0000    0.0000
  band No.  band energies     occupation 
      1     -10.4076      2.00000
      2     -10.3517      2.00000
      3     -10.3286      2.00000
      4     -10.3269      2.00000
      5     -10.3123      2.00000
      6     -10.3059      2.00000
      7     -10.2763      2.00000
      8     -10.2739      2.00000
      9     -10.2510      2.00000
     10     -10.2461      2.00000
     11     -10.1954      2.00000
     12     -10.1904      2.00000
     13     -10.1847      2.00000
     14     -10.1736      2.00000
     15     -10.1060      2.00000
     16     -10.0884      2.00000
     17     -10.0714      2.00000
     18     -10.0633      2.00000
     19     -10.0537      2.00000
     20     -10.0210      2.00000
     21     -10.0174      2.00000
     22     -10.0025      2.00000
     23      -9.9905      2.00000
     24      -9.9825      2.00000
     25      -9.9658      2.00000
     26      -9.9586      2.00000
     27      -9.9540      2.00000
     28      -9.9495      2.00000
     29      -9.9439      2.00000
     30      -9.9386      2.00000
     31      -9.9322      2.00000
     32      -9.9251      2.00000
     33      -9.9202      2.00000
     34      -9.9168      2.00000
     35      -9.9110      2.00000
     36      -9.9079      2.00000
     37      -9.9070      2.00000
     38      -9.9036      2.00000
     39      -9.9027      2.00000
     40      -9.8975      2.00000
     41      -9.8927      2.00000
     42      -9.8905      2.00000
     43      -9.8886      2.00000
     44      -9.8860      2.00000
     45      -9.8795      2.00000
     46      -9.8783      2.00000
     47      -9.8767      2.00000
     48      -9.8744      2.00000
     49      -9.8700      2.00000
     50      -9.8676      2.00000
     51      -9.8656      2.00000
     52      -9.8635      2.00000
     53      -9.8503      2.00000
     54      -9.8467      2.00000
     55      -9.8453      2.00000
     56      -9.8442      2.00000
     57      -9.8431      2.00000
     58      -9.8411      2.00000
     59      -9.8400      2.00000
     60      -9.8369      2.00000
     61      -9.8364      2.00000
     62      -9.8319      2.00000
     63      -9.8281      2.00000
     64      -9.8242      2.00000
     65      -9.8217      2.00000
     66      -9.8200      2.00000
     67      -9.8118      2.00000
     68      -9.8052      2.00000
     69      -9.8000      2.00000
     70      -9.7835      2.00000
     71      -9.7817      2.00000
     72      -9.7752      2.00000
     73      -9.7742      2.00000
     74      -9.7721      2.00000
     75      -9.7685      2.00000
     76      -9.7627      2.00000
     77      -9.7613      2.00000
     78      -9.7558      2.00000
     79      -9.7540      2.00000
     80      -9.7521      2.00000
     81      -9.6177      2.00000
[...]
 20        0.740   0.582   9.944  11.267
 21        0.733   0.595   9.949  11.277
 22        0.732   0.594   9.949  11.275
 23        0.739   0.583   9.945  11.267
 24        0.740   0.583   9.945  11.268
 25        1.103   0.396   9.886  11.384
 26        1.341   2.377   0.000   3.718
 27        1.344   2.376   0.000   3.720
 28        1.350   2.354   0.000   3.705
 29        1.340   2.380   0.000   3.720
 30        1.344   2.377   0.000   3.721
 31        1.341   2.377   0.000   3.718
 32        1.340   2.380   0.000   3.720
 33        1.350   2.355   0.000   3.705
 34        1.344   2.403   0.000   3.747
 35        1.341   2.377   0.000   3.718
 36        1.341   2.377   0.000   3.718
 37        1.344   2.403   0.000   3.747
 38        1.341   2.377   0.000   3.718
 39        1.341   2.377   0.000   3.718
 40        1.350   2.354   0.000   3.704
 41        1.344   2.376   0.000   3.720
 42        1.340   2.380   0.000   3.720
 43        1.344   2.377   0.000   3.721
 44        1.340   2.380   0.000   3.720
 45        1.351   2.353   0.000   3.704
 46        1.344   2.377   0.000   3.721
 47        1.341   2.377   0.000   3.718
 48        1.344   2.376   0.000   3.720
 49        1.341   2.377   0.000   3.718
 50        1.340   2.380   0.000   3.720
 51        1.351   2.353   0.000   3.704
 52        1.351   2.353   0.000   3.704
 53        1.340   2.380   0.000   3.720
 54        1.341   2.377   0.000   3.718
 55        1.341   2.377   0.000   3.718
 56        1.341   2.377   0.000   3.718
 57        1.341   2.377   0.000   3.718
------------------------------------------------
tot       59.309  88.146 245.518 392.973
 
    CHARGE:  cpu time    4.59: real time    4.61
    FORLOC:  cpu time    0.14: real time    0.14
    FORNL :  cpu time  102.14: real time  102.44
    FORCOR:  cpu time    0.48: real time    0.49
    FORHAR:  cpu time    0.22: real time    0.22
    MIXING:  cpu time    0.01: real time    0.01
    OFIELD:  cpu time    0.00: real time    0.00

 VOLUME and BASIS-vectors are now :
 -----------------------------------------------------------------------------
  energy-cutoff  :      600.00
  volume of cell :     1339.13
      direct lattice vectors                 reciprocal lattice vectors
    11.022353692  0.000000000  0.000000000     0.090724724  0.000000000  0.000000000
     0.000000000 11.022353692  0.000000000     0.000000000  0.090724724  0.000000000
     0.000000000  0.000000000 11.022353692     0.000000000  0.000000000  0.090724724

  length of vectors
    11.022353692 11.022353692 11.022353692     0.090724724  0.090724724  0.090724724


 FORCES acting on ions
    electron-ion (+dipol)            ewald-force                    non-local-force                 convergence-correction
 -----------------------------------------------------------------------------------------------
   0.114E+02 -.699E+01 -.114E+02   -.117E+02 0.697E+01 0.117E+02   0.233E+00 -.765E-02 -.231E+00   0.282E-04 0.383E-03 -.762E-04
   0.110E+02 0.106E+02 0.642E+01   -.112E+02 -.109E+02 -.639E+01   0.218E+00 0.225E+00 -.458E-02   0.112E-04 0.104E-03 -.393E-03
   -.643E+01 0.107E+02 -.109E+02   0.641E+01 -.109E+02 0.112E+02   0.443E-02 0.226E+00 -.216E+00   0.345E-03 0.638E-04 -.145E-04
   -.916E+02 -.901E+02 0.915E+02   0.929E+02 0.915E+02 -.929E+02   -.135E+01 -.144E+01 0.135E+01   0.117E-02 0.115E-02 -.122E-02
   -.110E+02 -.113E+02 -.762E+01   0.113E+02 0.115E+02 0.762E+01   -.218E+00 -.214E+00 0.181E-02   -.747E-04 0.229E-05 0.222E-03
   0.766E+01 -.113E+02 0.111E+02   -.766E+01 0.115E+02 -.113E+02   -.444E-02 -.213E+00 0.219E+00   -.250E-03 0.518E-04 0.102E-03
   0.912E+02 0.917E+02 -.913E+02   -.926E+02 -.930E+02 0.927E+02   0.141E+01 0.135E+01 -.141E+01   -.126E-02 -.122E-02 0.117E-02
   -.101E+02 0.666E+01 0.101E+02   0.103E+02 -.665E+01 -.103E+02   -.225E+00 -.357E-02 0.226E+00   -.586E-04 -.215E-03 0.121E-03
   -.531E+02 0.523E+02 0.786E+00   0.539E+02 -.531E+02 -.787E+00   -.804E+00 0.800E+00 -.466E-02   0.993E-03 -.912E-03 -.380E-04
   -.806E+00 0.382E+00 -.215E+00   0.801E+00 -.392E+00 0.259E+00   0.197E-02 0.585E-02 -.474E-01   0.564E-04 -.818E-05 0.139E-03
   -.777E+01 -.144E+02 0.148E+02   0.808E+01 0.144E+02 -.149E+02   -.322E+00 -.942E-01 0.999E-01   0.897E-03 0.311E-05 0.436E-04
   0.143E+02 0.752E+01 -.143E+02   -.144E+02 -.780E+01 0.144E+02   0.837E-01 0.304E+00 -.860E-01   0.303E-04 -.100E-02 -.269E-04
   0.439E+00 0.485E+00 -.404E+00   -.434E+00 -.482E+00 0.400E+00   -.708E-02 -.112E-01 0.585E-02   -.174E-04 -.140E-04 0.360E-04
   -.455E+00 -.528E+02 -.520E+02   0.458E+00 0.536E+02 0.528E+02   0.881E-02 -.772E+00 -.804E+00   -.438E-04 0.900E-03 0.832E-03
   0.528E+02 0.247E+00 0.523E+02   -.536E+02 -.226E+00 -.532E+02   0.780E+00 -.189E-01 0.805E+00   -.927E-03 -.448E-05 -.861E-03
   -.148E+02 -.143E+02 0.781E+01   0.149E+02 0.144E+02 -.812E+01   -.976E-01 -.939E-01 0.322E+00   -.260E-04 0.434E-06 -.895E-03
   0.558E+00 -.246E+01 -.601E+00   -.578E+00 0.245E+01 0.622E+00   0.172E-01 0.135E-01 -.179E-01   0.180E-04 -.934E-04 -.372E-04
   0.848E+01 0.148E+02 -.147E+02   -.875E+01 -.149E+02 0.148E+02   0.290E+00 0.877E-01 -.934E-01   -.941E-03 0.492E-04 -.528E-04
   0.339E+00 0.541E+00 0.637E+00   -.384E+00 -.550E+00 -.633E+00   0.492E-01 0.185E-02 0.122E-02   -.278E-04 -.371E-04 -.707E-04
   -.811E+00 0.524E+02 0.531E+02   0.811E+00 -.531E+02 -.539E+02   0.482E-02 0.800E+00 0.803E+00   0.201E-04 -.925E-03 -.889E-03
   0.147E+02 0.149E+02 -.843E+01   -.148E+02 -.150E+02 0.870E+01   0.957E-01 0.888E-01 -.291E+00   -.183E-05 0.873E-05 0.102E-02
   -.151E+02 -.866E+01 0.151E+02   0.152E+02 0.894E+01 -.152E+02   -.975E-01 -.322E+00 0.989E-01   -.568E-04 0.900E-03 0.610E-04
   -.523E+02 0.248E+00 -.528E+02   0.531E+02 -.227E+00 0.535E+02   -.804E+00 -.194E-01 -.781E+00   0.912E-03 0.135E-04 0.901E-03
   0.520E+02 -.528E+02 0.429E+00   -.528E+02 0.536E+02 -.431E+00   0.802E+00 -.772E+00 -.925E-02   -.902E-03 0.878E-03 0.334E-04
   -.342E+00 -.647E-01 0.213E+00   0.231E+00 0.394E+00 -.955E-01   0.106E+00 -.320E+00 -.111E+00   0.234E-03 -.129E-03 -.266E-03
   0.543E+02 0.608E+02 0.606E+02   -.535E+02 -.604E+02 -.598E+02   -.775E+00 -.418E+00 -.745E+00   0.102E-03 0.422E-03 -.100E-03
   -.691E+02 -.694E+02 0.524E+02   0.686E+02 0.688E+02 -.522E+02   0.578E+00 0.602E+00 -.206E+00   -.111E-03 -.102E-03 0.550E-03
   0.246E+02 0.504E+02 -.498E+02   -.250E+02 -.500E+02 0.494E+02   0.418E+00 -.369E+00 0.378E+00   -.294E-03 0.146E-04 -.418E-04
   0.562E+02 -.556E+02 -.562E+02   -.554E+02 0.550E+02 0.554E+02   -.762E+00 0.587E+00 0.761E+00   0.101E-03 -.110E-03 -.108E-03
   0.691E+02 0.691E+02 -.527E+02   -.685E+02 -.685E+02 0.525E+02   -.624E+00 -.600E+00 0.220E+00   0.870E-04 0.888E-04 -.488E-03
   -.609E+02 -.544E+02 -.611E+02   0.605E+02 0.537E+02 0.604E+02   0.428E+00 0.763E+00 0.703E+00   -.461E-03 -.116E-03 0.496E-04
   0.555E+02 -.557E+02 0.556E+02   -.549E+02 0.549E+02 -.548E+02   -.604E+00 0.764E+00 -.752E+00   0.899E-04 -.158E-03 0.165E-03
   -.487E+02 -.235E+02 0.486E+02   0.483E+02 0.239E+02 -.482E+02   0.427E+00 -.435E+00 -.427E+00   -.229E-04 0.325E-03 0.862E-05
   0.299E+02 0.325E+02 -.299E+02   -.285E+02 -.311E+02 0.285E+02   -.143E+01 -.137E+01 0.143E+01   0.266E-03 0.319E-03 -.322E-03
   0.611E+02 -.616E+02 0.544E+02   -.604E+02 0.612E+02 -.536E+02   -.703E+00 0.438E+00 -.772E+00   -.704E-04 -.447E-03 0.776E-04
   -.546E+02 0.611E+02 0.615E+02   0.538E+02 -.604E+02 -.610E+02   0.782E+00 -.707E+00 -.421E+00   -.529E-04 -.910E-04 0.469E-03
   -.317E+02 -.299E+02 0.317E+02   0.302E+02 0.285E+02 -.302E+02   0.143E+01 0.145E+01 -.143E+01   -.307E-03 -.295E-03 0.257E-03
   -.606E+02 0.544E+02 -.618E+02   0.599E+02 -.536E+02 0.614E+02   0.748E+00 -.782E+00 0.418E+00   0.101E-03 0.124E-03 -.402E-03
   0.614E+02 -.607E+02 -.540E+02   -.610E+02 0.600E+02 0.532E+02   -.410E+00 0.751E+00 0.768E+00   0.452E-03 0.737E-04 -.699E-04
   0.498E+02 0.504E+02 -.245E+02   -.494E+02 -.500E+02 0.249E+02   -.378E+00 -.368E+00 -.416E+00   0.285E-04 0.201E-04 0.258E-03
   -.695E+02 -.532E+02 0.695E+02   0.689E+02 0.530E+02 -.689E+02   0.580E+00 0.226E+00 -.580E+00   -.106E-03 -.539E-03 0.125E-03
   -.557E+02 0.559E+02 -.559E+02   0.551E+02 -.551E+02 0.551E+02   0.584E+00 -.776E+00 0.758E+00   -.106E-03 0.950E-04 -.103E-03
   0.689E+02 0.521E+02 -.689E+02   -.683E+02 -.518E+02 0.683E+02   -.622E+00 -.228E+00 0.623E+00   0.933E-04 0.543E-03 -.115E-03
   -.555E+02 -.557E+02 -.555E+02   0.548E+02 0.549E+02 0.549E+02   0.751E+00 0.762E+00 0.605E+00   -.146E-03 -.881E-04 -.718E-04
   -.255E+02 -.512E+02 0.524E+02   0.259E+02 0.509E+02 -.521E+02   -.415E+00 0.304E+00 -.282E+00   0.242E-03 -.171E-04 -.637E-04
   0.527E+02 0.691E+02 -.691E+02   -.525E+02 -.684E+02 0.684E+02   -.218E+00 -.600E+00 0.626E+00   0.537E-03 0.102E-03 -.120E-03
   0.612E+02 -.545E+02 0.610E+02   -.605E+02 0.537E+02 -.605E+02   -.702E+00 0.763E+00 -.429E+00   -.798E-04 -.101E-03 0.477E-03
   -.524E+02 -.694E+02 0.692E+02   0.522E+02 0.688E+02 -.686E+02   0.206E+00 0.601E+00 -.577E+00   -.503E-03 -.982E-04 0.121E-03
   -.606E+02 0.609E+02 -.543E+02   0.599E+02 -.604E+02 0.535E+02   0.745E+00 -.418E+00 0.775E+00   0.101E-03 0.430E-03 -.110E-03
   0.558E+02 0.558E+02 0.557E+02   -.551E+02 -.551E+02 -.551E+02   -.758E+00 -.777E+00 -.584E+00   0.131E-03 0.115E-03 0.116E-03
   0.517E+02 0.271E+02 -.518E+02   -.514E+02 -.275E+02 0.515E+02   -.292E+00 0.413E+00 0.290E+00   0.352E-05 -.235E-03 -.871E-05
   -.524E+02 -.512E+02 0.255E+02   0.521E+02 0.509E+02 -.259E+02   0.282E+00 0.303E+00 0.417E+00   0.417E-04 0.214E-04 -.216E-03
   -.553E+02 0.554E+02 0.553E+02   0.545E+02 -.548E+02 -.545E+02   0.764E+00 -.594E+00 -.764E+00   -.170E-03 0.116E-03 0.104E-03
   -.614E+02 0.611E+02 0.546E+02   0.610E+02 -.604E+02 -.538E+02   0.418E+00 -.709E+00 -.782E+00   -.445E-03 -.775E-04 0.361E-04
   0.540E+02 -.606E+02 -.614E+02   -.532E+02 0.599E+02 0.610E+02   -.768E+00 0.753E+00 0.409E+00   0.123E-03 0.105E-03 -.430E-03
   0.618E+02 0.544E+02 0.607E+02   -.614E+02 -.536E+02 -.600E+02   -.418E+00 -.782E+00 -.747E+00   0.418E-03 0.492E-04 -.685E-04
   -.544E+02 -.616E+02 -.611E+02   0.536E+02 0.612E+02 0.604E+02   0.772E+00 0.437E+00 0.702E+00   -.920E-04 -.457E-03 0.418E-04
 -----------------------------------------------------------------------------------------------
   -.197E+00 0.435E+00 0.199E+00   -.639E-13 0.149E-12 -.639E-13   0.196E+00 -.435E+00 -.199E+00   0.713E-04 -.275E-04 -.146E-03
 
 
 POSITION                                       TOTAL-FORCE (eV/Angst)
 -----------------------------------------------------------------------------------
     11.01961     10.98813      0.00278        -0.005383     -0.018927      0.005384
     11.01956      5.50546      5.54461        -0.005535     -0.002562      0.022043
      5.47798      5.50557      0.00302        -0.022174     -0.003707      0.005391
      5.75522      0.28379      5.26720        -0.010341     -0.027642      0.010244
      8.27219      2.75911      8.22640         0.002242      0.002976      0.002094
      2.79627      2.75899      2.75026        -0.002870      0.003339     -0.003224
      2.48867      8.02449      8.53321         0.003279     -0.002947     -0.002557
      8.27108      8.30639      2.75123         0.002897     -0.001981     -0.003174
      6.91735      6.85710      6.88716        -0.004263      0.013593     -0.004952
      4.13094      9.64035      1.37678        -0.002737     -0.003552     -0.003601
      9.75754      1.41378      4.09485        -0.010902     -0.006151      0.001367
      1.33905      4.01907      9.68339         0.002396      0.021249     -0.002314
      9.64616      4.13218      1.37625        -0.002527     -0.008071      0.002506
      4.13392      1.40051      9.67402         0.011419      0.001745     -0.008814
      1.35090      9.64188      4.10632         0.016696      0.002104     -0.002572
      6.92749      1.41369      1.26484        -0.001766     -0.006997      0.010829
      4.13007      4.13108      6.89241        -0.002854      0.002983      0.002691
      9.53149      6.84930      9.68401         0.025734      0.001372      0.000017
      9.64530      9.64112      6.89098         0.003478     -0.007461      0.005504
      4.13515      6.85714      4.10515         0.004605      0.013657      0.005092
      1.33842      6.84922      1.49085        -0.000047      0.000874     -0.025818
      6.92891      4.24191      4.09348         0.001211     -0.035459     -0.000859
      6.91600      9.64180      9.67138         0.002854      0.002118     -0.016449
      1.34839      1.40054      6.88839         0.009087      0.001694     -0.011540
      4.14590      9.62007      6.87596        -0.004523      0.009409      0.005359
      4.26374      4.23991      4.23562         0.019812     -0.005224     -0.022222
      6.76739      1.24965      9.68461        -0.011539      0.005601      0.012070
      1.25709      9.69800      6.83545        -0.013236     -0.001351     -0.001777
      9.71084      6.77151      1.31172         0.007209     -0.002311     -0.008339
      1.50589      7.01128      4.09267        -0.012033      0.001840     -0.008210
      9.53458      9.51228      9.54840         0.006103     -0.016443      0.007812
      7.00636      4.06307      1.44243         0.001253     -0.014068      0.023647
      4.07606      1.50112      6.94620        -0.002531     -0.000090      0.003084
      7.15203      1.63392      3.87035         0.012540      0.028126     -0.012173
      1.47354      4.01978      7.02031        -0.011528      0.005851      0.009641
      4.00266      6.98436      1.48730        -0.010158     -0.015585     -0.007911
      1.11469      6.62477      9.90773         0.004487     -0.000550     -0.004594
      6.78676      9.77183      1.26726         0.023682      0.015887     -0.002178
      9.75343      1.27400      6.75957         0.001167      0.023965     -0.021828
      4.18688      9.69782      9.76520         0.001259     -0.001295      0.012365
      6.76620      6.84177      4.25619         0.000044      0.006988     -0.000063
      1.26311      4.19974      1.31089        -0.005414      0.004693     -0.012047
      1.50451      1.41698      9.51780        -0.013561      0.008967      0.013608
      9.58031      4.06336      4.01583        -0.025406     -0.015619     -0.000335
      7.01451      9.59145      6.94088        -0.010814     -0.000244      0.000263
      6.92947      7.01107      9.51629         0.009795      0.003047      0.012359
      1.47398      9.51224      1.48790        -0.009092     -0.016419     -0.007337
      1.33775      1.24966      4.25487        -0.012194      0.005725      0.012200
      6.78674      4.23988      6.75852         0.023066     -0.005465     -0.019249
      9.71129      4.19980      9.75942         0.013207      0.004954      0.005385
      4.18338      6.76555      6.83882         0.001279     -0.014188     -0.000918
      4.08134      9.59155      4.00770         0.000410     -0.000400      0.010988
      9.57814      1.49102      1.44438        -0.018938      0.013156      0.018188
      9.53540      6.98457      7.01990         0.006707     -0.014940      0.009499
      4.26276      1.27390      1.26892         0.022092      0.022115     -0.001413
      9.75502      9.77186      4.23554         0.002346      0.016363     -0.024275
      4.00224      4.01989      9.54892        -0.009992      0.005258      0.011114
 -----------------------------------------------------------------------------------
    total drift:                               -0.000213     -0.000595      0.000146


--------------------------------------------------------------------------------------------------------



  FREE ENERGIE OF THE ION-ELECTRON SYSTEM (eV)
  ---------------------------------------------------
  free  energy   TOTEN  =      -212.74439538 eV

  energy  without entropy=     -212.74439538  energy(sigma->0) =     -212.74439538
 


--------------------------------------------------------------------------------------------------------


    POTLOK:  cpu time    0.39: real time    0.41


--------------------------------------------------------------------------------------------------------


 writing wavefunctions
     LOOP+:  cpu time 2091.39: real time 3698.82
    4ORBIT:  cpu time    0.00: real time    0.00
 


 total charge     
 
# of ion     s       p       d       tot
----------------------------------------
  1        0.420   0.290   9.561  10.271
  2        0.420   0.290   9.561  10.271
  3        0.420   0.290   9.561  10.271
  4        0.445   0.291   9.560  10.295
  5        0.420   0.290   9.561  10.271
  6        0.420   0.290   9.561  10.271
  7        0.444   0.291   9.560  10.295
  8        0.420   0.289   9.561  10.270
  9        0.740   0.582   9.944  11.267
 10        0.750   0.589   9.944  11.283
 11        0.733   0.595   9.949  11.276
 12        0.732   0.595   9.949  11.276
 13        0.727   0.603   9.952  11.282
 14        0.740   0.583   9.945  11.268
 15        0.739   0.583   9.945  11.267
 16        0.733   0.595   9.949  11.276
 17        0.750   0.589   9.944  11.283
 18        0.733   0.595   9.949  11.277
 19        0.750   0.589   9.944  11.283
 20        0.740   0.582   9.944  11.267
 21        0.733   0.595   9.949  11.277
 22        0.732   0.594   9.949  11.275
 23        0.739   0.583   9.945  11.267
 24        0.740   0.583   9.945  11.268
 25        1.103   0.396   9.886  11.384
 26        1.341   2.377   0.000   3.718
 27        1.344   2.376   0.000   3.720
 28        1.350   2.354   0.000   3.705
 29        1.340   2.380   0.000   3.720
 30        1.344   2.377   0.000   3.721
 31        1.341   2.377   0.000   3.718
 32        1.340   2.380   0.000   3.720
 33        1.350   2.355   0.000   3.705
 34        1.344   2.403   0.000   3.747
 35        1.341   2.377   0.000   3.718
 36        1.341   2.377   0.000   3.718
 37        1.344   2.403   0.000   3.747
 38        1.341   2.377   0.000   3.718
 39        1.341   2.377   0.000   3.718
 40        1.350   2.354   0.000   3.704
 41        1.344   2.376   0.000   3.720
 42        1.340   2.380   0.000   3.720
 43        1.344   2.377   0.000   3.721
 44        1.340   2.380   0.000   3.720
 45        1.351   2.353   0.000   3.704
 46        1.344   2.377   0.000   3.721
 47        1.341   2.377   0.000   3.718
 48        1.344   2.376   0.000   3.720
 49        1.341   2.377   0.000   3.718
 50        1.340   2.380   0.000   3.720
 51        1.351   2.353   0.000   3.704
 52        1.351   2.353   0.000   3.704
 53        1.340   2.380   0.000   3.720
 54        1.341   2.377   0.000   3.718
 55        1.341   2.377   0.000   3.718
 56        1.341   2.377   0.000   3.718
 57        1.341   2.377   0.000   3.718
------------------------------------------------
tot       59.309  88.146 245.518 392.973
 
 BZINTS: Fermi energy:  5.631042;509.000000 electrons
         Band energy:***********;  BLOECHL correction:  0.000000

 total amount of memory used by VASP on root node   355537. kBytes
========================================================================

   base      :      30000. kBytes
   nonl-proj :      77896. kBytes
   fftplans  :      18482. kBytes
   grid      :      32575. kBytes
   one-center:        233. kBytes
   wavefun   :     196351. kBytes
 
  
  
 General timing and accounting informations for this job:
 ========================================================
  
                  Total CPU time used (sec):     2224.339
                            User time (sec):     2143.554
                          System time (sec):       80.785
                         Elapsed time (sec):     8001.276
  
                   Maximum memory used (kb):      411552.
                   Average memory used (kb):           0.
  
                          Minor page faults:        49381
                          Major page faults:            0
                 Voluntary context switches:      6582755
