 vasp.5.3.5 31Mar14 (build Jan 22 2015 17:36:29) complex                        
  
 executed on             LinuxIFC date 2016.10.04  08:50:33
 running on   32 total cores
 distrk:  each k-point on   32 cores,    1 groups
 distr:  one band on NCORES_PER_BAND=   1 cores,   32 groups


--------------------------------------------------------------------------------------------------------


 INCAR:
 POTCAR:    PAW_PBE Cd 06Sep2000                  
 POTCAR:    PAW_PBE In_d 06Sep2000                
 POTCAR:    PAW_PBE S 06Sep2000                   

 ----------------------------------------------------------------------------- 
|                                                                             |
|           W    W    AA    RRRRR   N    N  II  N    N   GGGG   !!!           |
|           W    W   A  A   R    R  NN   N  II  NN   N  G    G  !!!           |
|           W    W  A    A  R    R  N N  N  II  N N  N  G       !!!           |
|           W WW W  AAAAAA  RRRRR   N  N N  II  N  N N  G  GGG   !            |
|           WW  WW  A    A  R   R   N   NN  II  N   NN  G    G                |
|           W    W  A    A  R    R  N    N  II  N    N   GGGG   !!!           |
|                                                                             |
|      For optimal performance we recommend to set                            |
|        NCORE= 4 - approx SQRT( number of cores)                             |
|      NCORE specifies how many cores store one orbital (NPAR=cpu/NCORE).     |
|      This setting can  greatly improve the performance of VASP for DFT.     |
|      The default, NPAR=number of cores might be grossly inefficient         |
|      on modern multi-core architectures or massively parallel machines.     |
|      Do your own testing !!!!                                               |
|      Unfortunately you need to use the default for GW and RPA calculations. |
|      (for HF NCORE is supported but not extensively tested yet)             |
|                                                                             |
 ----------------------------------------------------------------------------- 

 POTCAR:    PAW_PBE Cd 06Sep2000                  
   VRHFIN =Cd : s2 d10                                                          
   LEXCH  = PE                                                                  
   EATOM  =  1293.1815 eV,   95.0462 Ry                                         
                                                                                
   TITEL  = PAW_PBE Cd 06Sep2000                                                
   LULTRA =        F    use ultrasoft PP ?                                      
   IUNSCR =        1    unscreen: 0-lin 1-nonlin 2-no                           
   RPACOR =    2.000    partial core radius                                     
   POMASS =  112.411; ZVAL   =   12.000    mass and valenz                      
   RCORE  =    2.300    outmost cutoff radius                                   
   RWIGS  =    2.980; RWIGS  =    1.577    wigner-seitz radius (au A)           
   ENMAX  =  274.336; ENMIN  =  205.752 eV                                      
   RCLOC  =    2.054    cutoff for local pot                                    
   LCOR   =        T    correct aug charges                                     
   LPAW   =        T    paw PP                                                  
   EAUG   =  456.106                                                            
   DEXC   =    0.000                                                            
   RMAX   =    2.358    core radius for proj-oper                               
   RAUG   =    1.300    factor for augmentation sphere                          
   RDEP   =    2.450    radius for radial grids                                 
   RDEPT  =    1.955    core radius for aug-charge                              
                                                                                
   Atomic configuration                                                         
   12 entries                                                                   
     n  l   j            E        occ.                                          
     1  0  0.50    -26519.7817   2.0000                                         
     2  0  0.50     -3936.9612   2.0000                                         
     2  1  1.50     -3532.2230   6.0000                                         
     3  0  0.50      -733.7908   2.0000                                         
     3  1  1.50      -601.0792   6.0000                                         
     3  2  2.50      -393.5307  10.0000                                         
     4  0  0.50      -105.8977   2.0000                                         
     4  1  1.50       -66.9488   6.0000                                         
     4  2  2.50       -11.7331  10.0000                                         
     5  0  0.50        -5.6592   2.0000                                         
     5  1  0.50        -1.3606   0.0000                                         
     4  3  2.50        -1.3606   0.0000                                         
   Description                                                                  
     l       E           TYP  RCUT    TYP  RCUT                                 
     2    -11.7331479     23  2.300                                             
     2    -13.0937305     23  2.300                                             
     0     -5.6591502     23  2.300                                             
     0     -1.5561433     23  2.300                                             
     1     -2.7211652     23  2.300                                             
     1      8.3548275     23  2.300                                             
  local pseudopotential read in
  partial core-charges read in
  partial kinetic energy density read in
  atomic valenz-charges read in
  non local Contribution for L=           2  read in
    real space projection operators read in
  non local Contribution for L=           2  read in
    real space projection operators read in
  non local Contribution for L=           0  read in
    real space projection operators read in
  non local Contribution for L=           0  read in
    real space projection operators read in
  non local Contribution for L=           1  read in
    real space projection operators read in
  non local Contribution for L=           1  read in
    real space projection operators read in
    PAW grid and wavefunctions read in
 
   number of l-projection  operators is LMAX  =           6
   number of lm-projection operators is LMMAX =          18
 
 POTCAR:    PAW_PBE In_d 06Sep2000                
   VRHFIN =In: s2p1                                                             
   LEXCH  = PE                                                                  
   EATOM  =  1576.8302 eV,  115.8937 Ry                                         
                                                                                
   TITEL  = PAW_PBE In_d 06Sep2000                                              
   LULTRA =        F    use ultrasoft PP ?                                      
   IUNSCR =        1    unscreen: 0-lin 1-nonlin 2-no                           
   RPACOR =    2.200    partial core radius                                     
   POMASS =  114.820; ZVAL   =   13.000    mass and valenz                      
   RCORE  =    2.500    outmost cutoff radius                                   
   RWIGS  =    3.170; RWIGS  =    1.677    wigner-seitz radius (au A)           
   ENMAX  =  239.211; ENMIN  =  179.409 eV                                      
   ICORE  =        3    local potential                                         
   LCOR   =        T    correct aug charges                                     
   LPAW   =        T    paw PP                                                  
   EAUG   =  449.704                                                            
   DEXC   =    0.000                                                            
   RMAX   =    2.552    core radius for proj-oper                               
   RAUG   =    1.300    factor for augmentation sphere                          
   RDEP   =    2.630    radius for radial grids                                 
   RDEPT  =    2.033    core radius for aug-charge                              
                                                                                
   Atomic configuration                                                         
   12 entries                                                                   
     n  l   j            E        occ.                                          
     1  0  0.50    -27747.9169   2.0000                                         
     2  0  0.50     -4154.4438   2.0000                                         
     2  1  1.50     -3728.4305   6.0000                                         
     3  0  0.50      -788.3680   2.0000                                         
     3  1  1.50      -648.9215   6.0000                                         
     3  2  2.50      -432.5893  10.0000                                         
     4  0  0.50      -119.6363   2.0000                                         
     4  1  1.50       -78.1086   6.0000                                         
     4  2  2.50       -18.6227  10.0000                                         
     5  0  0.50        -8.2107   2.0000                                         
     5  1  0.50        -2.5185   1.0000                                         
     4  3  2.50        -2.7212   0.0000                                         
   Description                                                                  
     l       E           TYP  RCUT    TYP  RCUT                                 
     2    -18.6226981     23  2.500                                             
     2     -1.3605826     23  2.500                                             
     0     -8.2107305     23  2.500                                             
     0     -6.1485975     23  2.500                                             
     1     -2.5184867     23  2.500                                             
     1      3.2427302     23  2.500                                             
     3     -1.3605826      7  2.500                                             
  local pseudopotential read in
  partial core-charges read in
  partial kinetic energy density read in
  atomic valenz-charges read in
  non local Contribution for L=           2  read in
    real space projection operators read in
  non local Contribution for L=           2  read in
    real space projection operators read in
  non local Contribution for L=           0  read in
    real space projection operators read in
  non local Contribution for L=           0  read in
    real space projection operators read in
  non local Contribution for L=           1  read in
    real space projection operators read in
  non local Contribution for L=           1  read in
    real space projection operators read in
    PAW grid and wavefunctions read in
 
   number of l-projection  operators is LMAX  =           6
   number of lm-projection operators is LMMAX =          18
 
 POTCAR:    PAW_PBE S 06Sep2000                   
   VRHFIN =S : s2p4                                                             
   LEXCH  = PE                                                                  
   EATOM  =   276.8230 eV,   20.3459 Ry                                         
                                                                                
   TITEL  = PAW_PBE S 06Sep2000                                                 
   LULTRA =        F    use ultrasoft PP ?                                      
   IUNSCR =        1    unscreen: 0-lin 1-nonlin 2-no                           
   RPACOR =    1.500    partial core radius                                     
   POMASS =   32.066; ZVAL   =    6.000    mass and valenz                      
   RCORE  =    1.900    outmost cutoff radius                                   
   RWIGS  =    2.200; RWIGS  =    1.164    wigner-seitz radius (au A)           
   ENMAX  =  258.689; ENMIN  =  194.016 eV                                      
   ICORE  =        2    local potential                                         
   LCOR   =        T    correct aug charges                                     
   LPAW   =        T    paw PP                                                  
   EAUG   =  335.092                                                            
   DEXC   =    0.000                                                            
   RMAX   =    1.942    core radius for proj-oper                               
   RAUG   =    1.300    factor for augmentation sphere                          
   RDEP   =    1.954    radius for radial grids                                 
   RDEPT  =    1.744    core radius for aug-charge                              
                                                                                
   Atomic configuration                                                         
    6 entries                                                                   
     n  l   j            E        occ.                                          
     1  0  0.50     -2405.8406   2.0000                                         
     2  0  0.50      -211.7007   2.0000                                         
     2  1  1.50      -156.4958   6.0000                                         
     3  0  0.50       -17.2562   2.0000                                         
     3  1  0.50        -7.0085   4.0000                                         
     3  2  1.50        -6.8029   0.0000                                         
   Description                                                                  
     l       E           TYP  RCUT    TYP  RCUT                                 
     0    -17.2561641     23  1.900                                             
     0    -15.8743224     23  1.900                                             
     1     -7.0085400     23  1.900                                             
     1     -2.7779785     23  1.900                                             
     2     -6.8029130     23  1.900                                             
  local pseudopotential read in
  partial core-charges read in
  partial kinetic energy density read in
  atomic valenz-charges read in
  non local Contribution for L=           0  read in
    real space projection operators read in
  non local Contribution for L=           0  read in
    real space projection operators read in
  non local Contribution for L=           1  read in
    real space projection operators read in
  non local Contribution for L=           1  read in
    real space projection operators read in
    PAW grid and wavefunctions read in
 
   number of l-projection  operators is LMAX  =           4
   number of lm-projection operators is LMMAX =           8
 

 ----------------------------------------------------------------------------- 
|                                                                             |
|  ADVICE TO THIS USER RUNNING 'VASP/VAMP'   (HEAR YOUR MASTER'S VOICE ...):  |
|                                                                             |
|      You have a (more or less) 'large supercell' and for larger cells       |
|      it might be more efficient to use real space projection opertators     |
|      So try LREAL= Auto  in the INCAR   file.                               |
|      Mind: At the moment your POTCAR file does not contain real space       |
|       projectors, and has to be modified,  BUT if you                       |
|      want to do an extremely  accurate calculation you might also keep the  |
|      reciprocal projection scheme          (i.e. LREAL=.FALSE.)             |
|                                                                             |
 ----------------------------------------------------------------------------- 

  PAW_PBE Cd 06Sep2000                  :
 energy of atom  1       EATOM=-1293.1815
 kinetic energy error for atom=    0.0041 (will be added to EATOM!!)
  PAW_PBE In_d 06Sep2000                :
 energy of atom  2       EATOM=-1576.8302
 kinetic energy error for atom=    0.0011 (will be added to EATOM!!)
  PAW_PBE S 06Sep2000                   :
 energy of atom  3       EATOM= -276.8230
 kinetic energy error for atom=    0.0009 (will be added to EATOM!!)
 
 
 POSCAR: Cd In2 S4                               
  positions in direct lattice
  velocities in cartesian coordinates
 exchange correlation table for  LEXCH =        8
   RHO(1)=    0.500       N(1)  =     2000
   RHO(2)=  100.500       N(2)  =     4000
 


--------------------------------------------------------------------------------------------------------


 ion  position               nearest neighbor table
   1  1.000  1.000  1.000-  30 2.56  42 2.57  52 2.57  46 2.57
   2  0.001  0.501  0.501-  53 2.56  29 2.58  34 2.58  43 2.58
   3  0.501  0.501  0.001-  45 2.56  35 2.58  31 2.58  56 2.58
   4  0.501  0.001  0.501-  44 2.56  32 2.58  33 2.58  51 2.58
   5  0.749  0.249  0.749-  48 2.55  26 2.58  38 2.58  49 2.58
   6  0.250  0.250  0.250-  25 2.56  47 2.57  41 2.57  54 2.57
   7  0.249  0.749  0.749-  50 2.55  36 2.58  27 2.58  39 2.58
   8  0.749  0.749  0.249-  40 2.55  28 2.58  37 2.58  55 2.58
   9  0.625  0.625  0.625-  48 2.69  40 2.69  50 2.69  53 2.70  45 2.70  44 2.70  22 3.88  17 3.88
                            20 3.88  18 3.88  19 3.88  23 3.88
  10  0.375  0.875  0.125-  35 2.65  54 2.65  37 2.65  46 2.65  39 2.65  51 2.65  14 3.89  16 3.90
                            15 3.90  21 3.90  23 3.90  20 3.90
  11  0.875  0.125  0.375-  33 2.65  47 2.65  38 2.65  52 2.65  55 2.65  43 2.65  15 3.89  24 3.90
                            13 3.90  16 3.90  19 3.90  22 3.90
  12  0.125  0.375  0.875-  34 2.65  41 2.65  36 2.65  42 2.65  49 2.65  56 2.66  13 3.89  21 3.90
                            14 3.90  24 3.90  18 3.90  17 3.90
  13  0.875  0.375  0.125-  31 2.65  41 2.65  28 2.65  52 2.65  49 2.65  43 2.66  12 3.89  21 3.90
                            11 3.90  16 3.90  18 3.90  22 3.90
  14  0.375  0.125  0.875-  32 2.65  54 2.65  26 2.65  42 2.65  39 2.65  56 2.65  10 3.89  16 3.90
                            12 3.90  24 3.90  23 3.90  17 3.90
  15  0.125  0.875  0.375-  29 2.65  47 2.65  27 2.65  46 2.65  55 2.65  51 2.66  11 3.89  24 3.90
                            10 3.90  21 3.90  19 3.90  20 3.90
  16  0.625  0.125  0.125-  26 2.64  37 2.64  33 2.65  31 2.65  54 2.65  52 2.66  10 3.90  14 3.90
                            13 3.90  11 3.90  23 3.91  22 3.91
  17  0.376  0.376  0.626-  50 2.63  48 2.63  34 2.66  32 2.66  25 2.66  56 2.66   9 3.88  20 3.89
                            22 3.89  14 3.90  12 3.90  24 3.91
  18  0.874  0.625  0.874-  45 2.63  53 2.63  49 2.66  30 2.66  28 2.66  36 2.66   9 3.88  19 3.89
                            23 3.89  12 3.90  13 3.90  21 3.91
  19  0.874  0.874  0.625-  53 2.63  44 2.63  55 2.66  30 2.66  38 2.66  27 2.66   9 3.88  18 3.89
                            23 3.89  11 3.90  15 3.90  24 3.91
  20  0.376  0.626  0.376-  50 2.63  40 2.63  35 2.66  29 2.66  25 2.66  51 2.66   9 3.88  17 3.89
                            22 3.89  15 3.90  10 3.90  21 3.91
  21  0.125  0.625  0.125-  36 2.64  28 2.64  29 2.65  35 2.65  41 2.65  46 2.66  13 3.90  12 3.90
                            10 3.90  15 3.90  18 3.91  20 3.91
  22  0.626  0.376  0.376-  40 2.63  48 2.63  33 2.66  31 2.66  25 2.66  43 2.66   9 3.88  20 3.89
                            17 3.89  11 3.90  13 3.90  16 3.91
  23  0.625  0.874  0.874-  44 2.63  45 2.63  39 2.66  30 2.66  37 2.66  26 2.66   9 3.88  19 3.89
                            18 3.89  10 3.90  14 3.90  16 3.91
  24  0.125  0.125  0.625-  27 2.64  38 2.64  32 2.65  34 2.65  47 2.65  42 2.66  11 3.90  15 3.90
                            14 3.90  12 3.90  19 3.91  17 3.91
  25  0.385  0.385  0.385-   6 2.56  22 2.66  20 2.66  17 2.66
  26  0.615  0.115  0.885-   5 2.58  16 2.64  14 2.65  23 2.66
  27  0.115  0.885  0.615-   7 2.58  24 2.64  15 2.65  19 2.66
  28  0.885  0.615  0.115-   8 2.58  21 2.64  13 2.65  18 2.66
  29  0.136  0.636  0.364-   2 2.58  21 2.65  15 2.65  20 2.66
  30  0.866  0.865  0.865-   1 2.56  18 2.66  19 2.66  23 2.66
  31  0.636  0.364  0.136-   3 2.58  16 2.65  13 2.65  22 2.66
  32  0.364  0.136  0.636-   4 2.58  24 2.65  14 2.65  17 2.66
  33  0.636  0.136  0.364-   4 2.58  16 2.65  11 2.65  22 2.66
  34  0.136  0.364  0.636-   2 2.58  24 2.65  12 2.65  17 2.66
  35  0.364  0.636  0.136-   3 2.58  21 2.65  10 2.65  20 2.66
  36  0.115  0.615  0.885-   7 2.58  21 2.64  12 2.65  18 2.66
  37  0.615  0.885  0.115-   8 2.58  16 2.64  10 2.65  23 2.66
  38  0.885  0.115  0.615-   5 2.58  24 2.64  11 2.65  19 2.66
  39  0.384  0.884  0.884-   7 2.58  14 2.65  10 2.65  23 2.66
  40  0.614  0.614  0.381-   8 2.55  22 2.63  20 2.63   9 2.69
  41  0.115  0.385  0.115-   6 2.57  12 2.65  13 2.65  21 2.65
  42  0.135  0.135  0.866-   1 2.57  12 2.65  14 2.65  24 2.66
  43  0.866  0.365  0.365-   2 2.58  11 2.65  13 2.66  22 2.66
  44  0.635  0.869  0.635-   4 2.56  23 2.63  19 2.63   9 2.70
  45  0.636  0.635  0.869-   3 2.56  18 2.63  23 2.63   9 2.70
  46  0.135  0.866  0.135-   1 2.57  10 2.65  15 2.65  21 2.66
  47  0.115  0.115  0.385-   6 2.57  15 2.65  11 2.65  24 2.65
  48  0.614  0.381  0.614-   5 2.55  22 2.63  17 2.63   9 2.69
  49  0.884  0.384  0.884-   5 2.58  12 2.65  13 2.65  18 2.66
  50  0.381  0.614  0.614-   7 2.55  20 2.63  17 2.63   9 2.69
  51  0.365  0.866  0.365-   4 2.58  10 2.65  15 2.66  20 2.66
  52  0.866  0.135  0.135-   1 2.57  11 2.65  13 2.65  16 2.66
  53  0.869  0.635  0.635-   2 2.56  18 2.63  19 2.63   9 2.70
  54  0.385  0.115  0.115-   6 2.57  10 2.65  14 2.65  16 2.65
  55  0.884  0.884  0.384-   8 2.58  15 2.65  11 2.65  19 2.66
  56  0.365  0.365  0.866-   3 2.58  14 2.65  12 2.66  17 2.66
 
  LATTYP: Found a simple cubic cell.
 ALAT       =    11.0223536917
  
  Lattice vectors:
  
 A1 = (  11.0223536917,   0.0000000000,   0.0000000000)
 A2 = (   0.0000000000,  11.0223536917,   0.0000000000)
 A3 = (   0.0000000000,   0.0000000000,  11.0223536917)


Analysis of symmetry for initial positions (statically):
=====================================================================
 Subroutine PRICEL returns:
 Original cell was already a primitive cell.
 

 Routine SETGRP: Setting up the symmetry group for a 
 simple cubic supercell.


 Subroutine GETGRP returns: Found  1 space group operations
 (whereof  1 operations were pure point group operations)
 out of a pool of 48 trial point group operations.


The static configuration has the point symmetry C_1 .


Analysis of symmetry for dynamics (positions and initial velocities):
=====================================================================
 Subroutine PRICEL returns:
 Original cell was already a primitive cell.
 

 Routine SETGRP: Setting up the symmetry group for a 
 simple cubic supercell.


 Subroutine GETGRP returns: Found  1 space group operations
 (whereof  1 operations were pure point group operations)
 out of a pool of 48 trial point group operations.


The dynamic configuration has the point symmetry C_1 .
 
 
 KPOINTS: Automatic mesh                          

Automatic generation of k-mesh.
Space group operators:
 irot       det(A)        alpha          n_x          n_y          n_z        tau_x        tau_y        tau_z
    1     1.000000     0.000001     1.000000     0.000000     0.000000     0.000000     0.000000     0.000000
 
 Subroutine IBZKPT returns following result:
 ===========================================
 
 Found     14 irreducible k-points:
 
 Following reciprocal coordinates:
            Coordinates               Weight
  0.000000  0.000000  0.000000      1.000000
  0.333333  0.000000  0.000000      2.000000
  0.000000  0.333333  0.000000      2.000000
  0.333333  0.333333  0.000000      2.000000
 -0.333333  0.333333  0.000000      2.000000
  0.000000  0.000000  0.333333      2.000000
  0.333333  0.000000  0.333333      2.000000
 -0.333333  0.000000  0.333333      2.000000
  0.000000  0.333333  0.333333      2.000000
  0.333333  0.333333  0.333333      2.000000
 -0.333333  0.333333  0.333333      2.000000
  0.000000 -0.333333  0.333333      2.000000
  0.333333 -0.333333  0.333333      2.000000
 -0.333333 -0.333333  0.333333      2.000000
 
 Following cartesian coordinates:
            Coordinates               Weight
  0.000000  0.000000  0.000000      1.000000
  0.030242  0.000000  0.000000      2.000000
  0.000000  0.030242  0.000000      2.000000
  0.030242  0.030242  0.000000      2.000000
 -0.030242  0.030242  0.000000      2.000000
  0.000000  0.000000  0.030242      2.000000
  0.030242  0.000000  0.030242      2.000000
 -0.030242  0.000000  0.030242      2.000000
  0.000000  0.030242  0.030242      2.000000
  0.030242  0.030242  0.030242      2.000000
 -0.030242  0.030242  0.030242      2.000000
  0.000000 -0.030242  0.030242      2.000000
  0.030242 -0.030242  0.030242      2.000000
 -0.030242 -0.030242  0.030242      2.000000
 
 TETIRR: Found     78 inequivalent tetrahedra from      162


--------------------------------------------------------------------------------------------------------




 Dimension of arrays:
   k-points           NKPTS =     14   k-points in BZ     NKDIM =     14   number of bands    NBANDS=    320
   number of dos      NEDOS =   1601   number of ions     NIONS =     56
   non local maximal  LDIM  =      6   non local SUM 2l+1 LMDIM =     18
   total plane-waves  NPLWV = 729000
   max r-space proj   IRMAX =      1   max aug-charges    IRDMAX=  23711
   dimension x,y,z NGX =    90 NGY =   90 NGZ =   90
   dimension x,y,z NGXF=   180 NGYF=  180 NGZF=  180
   support grid    NGXF=   180 NGYF=  180 NGZF=  180
   ions per type =               9  15  32
 NGX,Y,Z   is equivalent  to a cutoff of  13.57, 13.57, 13.57 a.u.
 NGXF,Y,Z  is equivalent  to a cutoff of  27.15, 27.15, 27.15 a.u.


 I would recommend the setting:
   dimension x,y,z NGX =    88 NGY =   88 NGZ =   88
 SYSTEM =  CdIn2S4                                 
 POSCAR =  Cd In2 S4                               

 Startparameter for this run:
   NWRITE =      2    write-flag & timer
   PREC   = accura    normal or accurate (medium, high low for compatibility)
   ISTART =      0    job   : 0-new  1-cont  2-samecut
   ICHARG =      2    charge: 1-file 2-atom 10-const
   ISPIN  =      1    spin polarized calculation?
   LNONCOLLINEAR =      F non collinear calculations
   LSORBIT =      F    spin-orbit coupling
   INIWAV =      1    electr: 0-lowe 1-rand  2-diag
   LASPH  =      F    aspherical Exc in radial PAW
   METAGGA=      F    non-selfconsistent MetaGGA calc.

 Electronic Relaxation 1
   ENCUT  =  600.0 eV  44.10 Ry    6.64 a.u.  22.01 22.01 22.01*2*pi/ulx,y,z
   ENINI  =  600.0     initial cutoff
   ENAUG  =  456.1 eV  augmentation charge cutoff
   NELM   =     60;   NELMIN=  2; NELMDL= -5     # of ELM steps 
   EDIFF  = 0.1E-03   stopping-criterion for ELM
   LREAL  =      F    real-space projection
   NLSPLINE    = F    spline interpolate recip. space projectors
   LCOMPAT=      F    compatible to vasp.4.4
   GGA_COMPAT  = T    GGA compatible to vasp.4.4-vasp.4.6
   LMAXPAW     = -100 max onsite density
   LMAXMIX     =    2 max onsite mixed and CHGCAR
   VOSKOWN=      0    Vosko Wilk Nusair interpolation
   ROPT   =    0.00000   0.00000   0.00000
 Ionic relaxation
   EDIFFG = 0.1E-02   stopping-criterion for IOM
   NSW    =      0    number of steps for IOM
   NBLOCK =      1;   KBLOCK =      1    inner block; outer block 
   IBRION =     -1    ionic relax: 0-MD 1-quasi-New 2-CG
   NFREE  =      1    steps in history (QN), initial steepest desc. (CG)
   ISIF   =      0    stress and relaxation
   IWAVPR =     10    prediction:  0-non 1-charg 2-wave 3-comb
   ISYM   =      2    0-nonsym 1-usesym 2-fastsym
   LCORR  =      T    Harris-Foulkes like correction to forces

   POTIM  = 0.5000    time-step for ionic-motion
   TEIN   =    0.0    initial temperature
   TEBEG  =    0.0;   TEEND  =   0.0 temperature during run
   SMASS  =  -3.00    Nose mass-parameter (am)
   estimated Nose-frequenzy (Omega)   =  0.10E-29 period in steps =****** mass=  -0.278E-26a.u.
   SCALEE = 1.0000    scale energy and forces
   NPACO  =    256;   APACO  = 16.0  distance and # of slots for P.C.
   PSTRESS=    0.0 pullay stress

  Mass of Ions in am
   POMASS = 112.41114.82 32.07
  Ionic Valenz
   ZVAL   =  12.00 13.00  6.00
  Atomic Wigner-Seitz radii
   RWIGS  =  -1.00 -1.00 -1.00
  virtual crystal weights 
   VCA    =   1.00  1.00  1.00
   NELECT =     495.0000    total number of electrons
   NUPDOWN=      -1.0000    fix difference up-down

 DOS related values:
   EMIN   =  -5.00;   EMAX   = 10.00  energy-range for DOS
   EFERMI =   0.00
   ISMEAR =    -4;   SIGMA  =   0.20  broadening in eV -4-tet -1-fermi 0-gaus

 Electronic relaxation 2 (details)
   IALGO  =     38    algorithm
   LDIAG  =      T    sub-space diagonalisation (order eigenvalues)
   LSUBROT=      F    optimize rotation matrix (better conditioning)
   TURBO    =      0    0=normal 1=particle mesh
   IRESTART =      0    0=no restart 2=restart with 2 vectors
   NREBOOT  =      0    no. of reboots
   NMIN     =      0    reboot dimension
   EREF     =   0.00    reference energy to select bands
   IMIX   =      4    mixing-type and parameters
     AMIX     =   0.40;   BMIX     =  1.00
     AMIX_MAG =   1.60;   BMIX_MAG =  1.00
     AMIN     =   0.10
     WC   =   100.;   INIMIX=   1;  MIXPRE=   1;  MAXMIX= -45

 Intra band minimization:
   WEIMIN = 0.0000     energy-eigenvalue tresh-hold
   EBREAK =  0.78E-07  absolut break condition
   DEPER  =   0.30     relativ break condition  

   TIME   =   0.40     timestep for ELM

  volume/ion in A,a.u.               =      23.91       161.37
  Fermi-wavevector in a.u.,A,eV,Ry     =   1.174904  2.220246 18.781460  1.380398
  Thomas-Fermi vector in A             =   2.311293
 
 Write flags
   LWAVE  =      T    write WAVECAR
   LCHARG =      T    write CHGCAR
   LVTOT  =      F    write LOCPOT, total local potential
   LVHAR  =      F    write LOCPOT, Hartree potential only
   LELF   =      F    write electronic localiz. function (ELF)
   LORBIT =     11    0 simple, 1 ext, 2 COOP (PROOUT)


 Dipole corrections
   LMONO  =      F    monopole corrections only (constant potential shift)
   LDIPOL =      F    correct potential (dipole corrections)
   IDIPOL =      0    1-x, 2-y, 3-z, 4-all directions 
   EPSILON=  1.0000000 bulk dielectric constant

 Exchange correlation treatment:
   GGA     =    --    GGA type
   LEXCH   =     8    internal setting for exchange type
   VOSKOWN=      0    Vosko Wilk Nusair interpolation
   LHFCALC =     F    Hartree Fock is set to
   LHFONE  =     F    Hartree Fock one center treatment
   AEXX    =    0.0000 exact exchange contribution

 Linear response parameters
   LEPSILON=     F    determine dielectric tensor
   LRPA    =     F    only Hartree local field effects (RPA)
   LNABLA  =     F    use nabla operator in PAW spheres
   LVEL    =     F    velocity operator in full k-point grid
   LINTERFAST=   F  fast interpolation
   KINTER  =     0    interpolate to denser k-point grid
   CSHIFT  =0.1000    complex shift for real part using Kramers Kronig
   OMEGAMAX=  -1.0    maximum frequency
   DEG_THRESHOLD= 0.2000000E-02 threshold for treating states as degnerate
   RTIME   =    0.100 relaxation time in fs

 Orbital magnetization related:
   ORBITALMAG=     F  switch on orbital magnetization
   LCHIMAG   =     F  perturbation theory with respect to B field
   DQ        =  0.001000  dq finite difference perturbation B field



--------------------------------------------------------------------------------------------------------


 Static calculation
 charge density and potential will be updated during run
 non-spin polarized calculation
 Variant of blocked Davidson
 Davidson routine will perform the subspace rotation
 perform sub-space diagonalisation
    after iterative eigenvector-optimisation
 modified Broyden-mixing scheme, WC =      100.0
 initial mixing is a Kerker type mixing with AMIX =  0.4000 and BMIX =      1.0000
 Hartree-type preconditioning will be used
 using additional bands           72
 reciprocal scheme for non local part
 use partial core corrections
 calculate Harris-corrections to forces 
   (improved forces if not selfconsistent)
 use gradient corrections 
 use of overlap-Matrix (Vanderbilt PP)
 Fermi weights with tetrahedron method witout Bloechl corrections


--------------------------------------------------------------------------------------------------------


  energy-cutoff  :      600.00
  volume of cell :     1339.13
      direct lattice vectors                 reciprocal lattice vectors
    11.022353692  0.000000000  0.000000000     0.090724724  0.000000000  0.000000000
     0.000000000 11.022353692  0.000000000     0.000000000  0.090724724  0.000000000
     0.000000000  0.000000000 11.022353692     0.000000000  0.000000000  0.090724724

  length of vectors
    11.022353692 11.022353692 11.022353692     0.090724724  0.090724724  0.090724724


 
 k-points in units of 2pi/SCALE and weight: Automatic mesh                          
   0.00000000  0.00000000  0.00000000       0.037
   0.03024157  0.00000000  0.00000000       0.074
   0.00000000  0.03024157  0.00000000       0.074
   0.03024157  0.03024157  0.00000000       0.074
  -0.03024157  0.03024157  0.00000000       0.074
   0.00000000  0.00000000  0.03024157       0.074
   0.03024157  0.00000000  0.03024157       0.074
  -0.03024157  0.00000000  0.03024157       0.074
   0.00000000  0.03024157  0.03024157       0.074
   0.03024157  0.03024157  0.03024157       0.074
  -0.03024157  0.03024157  0.03024157       0.074
   0.00000000 -0.03024157  0.03024157       0.074
   0.03024157 -0.03024157  0.03024157       0.074
  -0.03024157 -0.03024157  0.03024157       0.074
 
 k-points in reciprocal lattice and weights: Automatic mesh                          
   0.00000000  0.00000000  0.00000000       0.037
   0.33333333  0.00000000  0.00000000       0.074
   0.00000000  0.33333333  0.00000000       0.074
   0.33333333  0.33333333  0.00000000       0.074
  -0.33333333  0.33333333  0.00000000       0.074
   0.00000000  0.00000000  0.33333333       0.074
   0.33333333  0.00000000  0.33333333       0.074
  -0.33333333  0.00000000  0.33333333       0.074
   0.00000000  0.33333333  0.33333333       0.074
   0.33333333  0.33333333  0.33333333       0.074
  -0.33333333  0.33333333  0.33333333       0.074
   0.00000000 -0.33333333  0.33333333       0.074
   0.33333333 -0.33333333  0.33333333       0.074
  -0.33333333 -0.33333333  0.33333333       0.074
 
 position of ions in fractional coordinates (direct lattice) 
   0.99963392  0.99963344  0.99963776
   0.00132074  0.50085104  0.50084379
   0.50085456  0.50085123  0.00131107
   0.50085289  0.00131585  0.50085240
   0.74872667  0.24906209  0.74873000
   0.25042594  0.25042041  0.25043053
   0.24905411  0.74873110  0.74873458
   0.74873500  0.74872782  0.24905887
   0.62488170  0.62486447  0.62487505
   0.37486009  0.87524365  0.12484685
   0.87524202  0.12485005  0.37486950
   0.12484669  0.37486488  0.87524187
   0.87524159  0.37486356  0.12484886
   0.37486396  0.12485603  0.87524131
   0.12484884  0.87524233  0.37486686
   0.62514460  0.12484451  0.12484674
   0.37595829  0.37596087  0.62562805
   0.87393559  0.62459743  0.87392972
   0.87393296  0.87393500  0.62460081
   0.37595927  0.62562846  0.37595811
   0.12484593  0.62514356  0.12484804
   0.62562774  0.37595701  0.37595726
   0.62459625  0.87393457  0.87393071
   0.12484860  0.12484710  0.62514668
   0.38469638  0.38469397  0.38469013
   0.61489195  0.11483378  0.88538981
   0.11483252  0.88539140  0.61488786
   0.88537387  0.61488670  0.11481849
   0.13554369  0.63556393  0.36438190
   0.86550340  0.86548129  0.86549036
   0.63556601  0.36438833  0.13554982
   0.36438585  0.13554419  0.63557029
   0.63557156  0.13555386  0.36438257
   0.13554964  0.36439062  0.63556614
   0.36439204  0.63555572  0.13554634
   0.11483240  0.61488404  0.88538097
   0.61488655  0.88537112  0.11482619
   0.88538263  0.11483180  0.61488587
   0.38385447  0.88443072  0.88438236
   0.61414167  0.61413937  0.38087709
   0.11526213  0.38470132  0.11526146
   0.13463379  0.13463983  0.86579746
   0.86647555  0.36537283  0.36537784
   0.63548828  0.86904576  0.63549778
   0.63550411  0.63549501  0.86904447
   0.13463578  0.86578846  0.13463971
   0.11526256  0.11526152  0.38470362
   0.61414503  0.38086700  0.61414239
   0.88439522  0.38388187  0.88439505
   0.38086970  0.61414612  0.61413941
   0.36537840  0.86647534  0.36537145
   0.86579125  0.13463276  0.13464454
   0.86903788  0.63549999  0.63549554
   0.38470927  0.11525771  0.11525765
   0.88439382  0.88439444  0.38389179
   0.36537466  0.36537275  0.86647820
 
 position of ions in cartesian coordinates  (Angst):
  11.01831868 11.01831338 11.01836101
   0.01455766  5.52055726  5.52047741
   5.52059612  5.52055944  0.01445103
   5.52057765  0.01450381  5.52057236
   8.25273019  2.74525043  8.25276692
   2.76028324  2.76022229  2.76033392
   2.74516253  8.25277896  8.25281738
   8.25282201  8.25274283  2.74521492
   6.88766715  6.88747717  6.88759379
   4.13184049  9.64724506  1.37610618
   9.64722713  1.37614146  4.13194423
   1.37610442  4.13189327  9.64722545
   9.64722238  4.13187879  1.37612833
   4.13188312  1.37620733  9.64721926
   1.37612807  9.64723052  4.13191510
   6.89056487  1.37608037  1.37610496
   4.14394528  4.14397373  6.89589367
   9.63282720  6.88453379  9.63276251
   9.63279823  9.63282065  6.88457105
   4.14395601  6.89589817  4.14394332
   1.37609599  6.89055339  1.37611922
   6.89589024  4.14393119  4.14393386
   6.88452073  9.63281589  9.63277335
   1.37612544  1.37610892  6.89058784
   4.24025951  4.24023295  4.24019071
   6.77755654  1.26573851  9.75907969
   1.26572463  9.75909714  6.77751147
   9.75890399  6.77749870  1.26556998
   1.49401053  7.00541048  4.01634617
   9.53988461  9.53964094  9.53974090
   7.00543332  4.01641703  1.49407811
   4.01638970  1.49401598  7.00548056
   7.00549449  1.49412256  4.01635354
   1.49407602  4.01644232  7.00543474
   4.01645794  7.00531999  1.49403966
   1.26572332  6.77746941  9.75898222
   6.77749699  9.75887364  1.26565493
   9.75900050  1.26571669  6.77748954
   4.23097973  9.74850820  9.74797514
   6.76928666  6.76926135  4.19816204
   1.27045998  4.24031398  1.27045259
   1.48398127  1.48404781  9.54312578
   9.55059999  4.02726862  4.02732380
   7.00457656  9.57892971  7.00468134
   7.00475108  7.00465072  9.57891557
   1.48400321  9.54302659  1.48404651
   1.27046473  1.27045327  4.24033933
   6.76932377  4.19805073  6.76929464
   9.74811694  4.23128172  9.74811504
   4.19808056  6.76933570  6.76926174
   4.02732995  9.55059762  4.02725331
   9.54305736  1.48396989  1.48409971
   9.57884284  7.00470570  7.00465660
   4.24040161  1.27041126  1.27041061
   9.74810144  9.74810830  4.23139114
   4.02728876  4.02726773  9.55062919
 


--------------------------------------------------------------------------------------------------------


 k-point  1 :   0.0000 0.0000 0.0000  plane waves:   44473
 k-point  2 :   0.3333 0.0000 0.0000  plane waves:   44660
 k-point  3 :   0.0000 0.3333 0.0000  plane waves:   44660
 k-point  4 :   0.3333 0.3333 0.0000  plane waves:   44717
 k-point  5 :  -0.3333 0.3333 0.0000  plane waves:   44717
 k-point  6 :   0.0000 0.0000 0.3333  plane waves:   44660
 k-point  7 :   0.3333 0.0000 0.3333  plane waves:   44717
 k-point  8 :  -0.3333 0.0000 0.3333  plane waves:   44717
 k-point  9 :   0.0000 0.3333 0.3333  plane waves:   44717
 k-point 10 :   0.3333 0.3333 0.3333  plane waves:   44681
 k-point 11 :  -0.3333 0.3333 0.3333  plane waves:   44681
 k-point 12 :   0.0000-0.3333 0.3333  plane waves:   44717
 k-point 13 :   0.3333-0.3333 0.3333  plane waves:   44681
 k-point 14 :  -0.3333-0.3333 0.3333  plane waves:   44681

 maximum and minimum number of plane-waves per node :     44717    44473

 maximum number of plane-waves:     44717
 maximum index in each direction: 
   IXMAX=   22   IYMAX=   22   IZMAX=   22
   IXMIN=  -22   IYMIN=  -22   IZMIN=  -22

 NGX is ok and might be reduce to  90
 NGY is ok and might be reduce to  90
 NGZ is ok and might be reduce to  90

 serial   3D FFT for wavefunctions
 parallel 3D FFT for charge:
    minimum data exchange during FFTs selected (reduces bandwidth)


 total amount of memory used by VASP on root node   494609. kBytes
========================================================================

   base      :      30000. kBytes
   nonl-proj :     310646. kBytes
   fftplans  :       9474. kBytes
   grid      :      41834. kBytes
   one-center:        870. kBytes
   wavefun   :     101785. kBytes
 
     INWAV:  cpu time    0.00: real time    0.00
 Broyden mixing: mesh for mixing (old mesh)
   NGX = 45   NGY = 45   NGZ = 45
  (NGX  =180   NGY  =180   NGZ  =180)
  gives a total of  91125 points

 initial charge density was supplied:
 charge density of overlapping atoms calculated
 number of electron     495.0000000 magnetization 
 keeping initial charge density in first step


--------------------------------------------------------------------------------------------------------


 Maximum index for augmentation-charges          961 (set IRDMAX)


--------------------------------------------------------------------------------------------------------


 First call to EWALD:  gamma=   0.161
 Maximum number of real-space cells 3x 3x 3
 Maximum number of reciprocal cells 3x 3x 3

 FEWALD executed in parallel
    FEWALD:  cpu time    0.01: real time    0.01


----------------------------------------- Iteration    1(   1)  ---------------------------------------


    POTLOK:  cpu time    0.42: real time    0.43
    SETDIJ:  cpu time    0.03: real time    0.03
     EDDAV:  cpu time  259.85: real time  260.77
 BZINTS: Fermi energy: 24.039876;495.000000 electrons
         Band energy:3872.790984;  BLOECHL correction:  0.000000
       DOS:  cpu time    2.18: real time    2.19
    --------------------------------------------
      LOOP:  cpu time  262.48: real time  263.42

 eigenvalue-minimisations  :  8960
 total energy-change (2. order) : 0.5805592E+04  (-0.2330709E+05)
 number of electron     495.0000000 magnetization 
 augmentation part      495.0000000 magnetization 

 Free energy of the ion-electron system (eV)
  ---------------------------------------------------
  alpha Z        PSCENC =      1306.21815755
  Ewald energy   TEWEN  =    -31783.29780351
  -Hartree energ DENC   =    -13351.76089901
  -exchange      EXHF   =         0.00000000
  -V(xc)+E(xc)   XCENC  =      1066.57279606
  PAW double counting   =     38443.77006490   -37898.04291699
  entropy T*S    EENTRO =         0.00000000
  eigenvalues    EBANDS =      3872.79098397
  atomic energy  EATOM  =     44149.34201756
  ---------------------------------------------------
  free energy    TOTEN  =      5805.59240053 eV

  energy without entropy =     5805.59240053  energy(sigma->0) =     5805.59240053


--------------------------------------------------------------------------------------------------------




----------------------------------------- Iteration    1(   2)  ---------------------------------------


     EDDAV:  cpu time  258.22: real time  259.14
 BZINTS: Fermi energy:  9.344722;495.000000 electrons
         Band energy:***********;  BLOECHL correction:  0.000000
       DOS:  cpu time    0.06: real time    0.06
    --------------------------------------------
      LOOP:  cpu time  260.46: real time  261.38

 eigenvalue-minimisations  :  8960
 total energy-change (2. order) :-0.4964242E+04  (-0.4750221E+04)
 number of electron     495.0000000 magnetization 
 augmentation part      495.0000000 magnetization 

 Free energy of the ion-electron system (eV)
  ---------------------------------------------------
  alpha Z        PSCENC =      1306.21815755
  Ewald energy   TEWEN  =    -31783.29780351
  -Hartree energ DENC   =    -13351.76089901
  -exchange      EXHF   =         0.00000000
  -V(xc)+E(xc)   XCENC  =      1066.57279606
  PAW double counting   =     38443.77006490   -37898.04291699
  entropy T*S    EENTRO =         0.00000000
  eigenvalues    EBANDS =     -1091.45129544
  atomic energy  EATOM  =     44149.34201756
  ---------------------------------------------------
  free energy    TOTEN  =       841.35012113 eV

  energy without entropy =      841.35012113  energy(sigma->0) =      841.35012113


--------------------------------------------------------------------------------------------------------




----------------------------------------- Iteration    1(   3)  ---------------------------------------


     EDDAV:  cpu time  288.01: real time  289.03
 BZINTS: Fermi energy:  3.094681;495.000000 electrons
         Band energy:***********;  BLOECHL correction:  0.000000
       DOS:  cpu time    0.06: real time    0.06
    --------------------------------------------
      LOOP:  cpu time  288.13: real time  289.16

 eigenvalue-minimisations  : 10336
 total energy-change (2. order) :-0.9749625E+03  (-0.9335254E+03)
 number of electron     495.0000000 magnetization 
 augmentation part      495.0000000 magnetization 

 Free energy of the ion-electron system (eV)
  ---------------------------------------------------
  alpha Z        PSCENC =      1306.21815755
  Ewald energy   TEWEN  =    -31783.29780351
  -Hartree energ DENC   =    -13351.76089901
  -exchange      EXHF   =         0.00000000
  -V(xc)+E(xc)   XCENC  =      1066.57279606
  PAW double counting   =     38443.77006490   -37898.04291699
  entropy T*S    EENTRO =         0.00000000
  eigenvalues    EBANDS =     -2066.41380284
  atomic energy  EATOM  =     44149.34201756
  ---------------------------------------------------
  free energy    TOTEN  =      -133.61238628 eV

  energy without entropy =     -133.61238628  energy(sigma->0) =     -133.61238628


--------------------------------------------------------------------------------------------------------




----------------------------------------- Iteration    1(   4)  ---------------------------------------


     EDDAV:  cpu time  301.04: real time  302.11
 BZINTS: Fermi energy:  2.524032;495.000000 electrons
         Band energy:***********;  BLOECHL correction:  0.000000
       DOS:  cpu time    0.06: real time    0.06
    --------------------------------------------
      LOOP:  cpu time  301.16: real time  302.24

 eigenvalue-minimisations  : 10912
 total energy-change (2. order) :-0.8556505E+02  (-0.8420249E+02)
 number of electron     495.0000000 magnetization 
 augmentation part      495.0000000 magnetization 

 Free energy of the ion-electron system (eV)
  ---------------------------------------------------
  alpha Z        PSCENC =      1306.21815755
  Ewald energy   TEWEN  =    -31783.29780351
  -Hartree energ DENC   =    -13351.76089901
  -exchange      EXHF   =         0.00000000
  -V(xc)+E(xc)   XCENC  =      1066.57279606
  PAW double counting   =     38443.77006490   -37898.04291699
  entropy T*S    EENTRO =         0.00000000
  eigenvalues    EBANDS =     -2151.97885492
  atomic energy  EATOM  =     44149.34201756
  ---------------------------------------------------
  free energy    TOTEN  =      -219.17743835 eV

  energy without entropy =     -219.17743835  energy(sigma->0) =     -219.17743835


--------------------------------------------------------------------------------------------------------




----------------------------------------- Iteration    1(   5)  ---------------------------------------


     EDDAV:  cpu time  333.90: real time  335.10
 BZINTS: Fermi energy:  2.507427;495.000000 electrons
         Band energy:***********;  BLOECHL correction:  0.000000
       DOS:  cpu time    0.06: real time    0.06
    CHARGE:  cpu time    8.74: real time    8.77
    MIXING:  cpu time    0.02: real time    0.02
    --------------------------------------------
      LOOP:  cpu time  342.79: real time  344.01

 eigenvalue-minimisations  : 12416
 total energy-change (2. order) :-0.4340274E+01  (-0.4327076E+01)
 number of electron     495.0000022 magnetization 
 augmentation part      130.5944365 magnetization 

 Broyden mixing:
  rms(total) = 0.36699E+01    rms(broyden)= 0.36699E+01
  rms(prec ) = 0.40613E+01
  weight for this iteration     100.00

 Free energy of the ion-electron system (eV)
  ---------------------------------------------------
  alpha Z        PSCENC =      1306.21815755
  Ewald energy   TEWEN  =    -31783.29780351
  -Hartree energ DENC   =    -13351.76089901
  -exchange      EXHF   =         0.00000000
  -V(xc)+E(xc)   XCENC  =      1066.57279606
  PAW double counting   =     38443.77006490   -37898.04291699
  entropy T*S    EENTRO =         0.00000000
  eigenvalues    EBANDS =     -2156.31912866
  atomic energy  EATOM  =     44149.34201756
  ---------------------------------------------------
  free energy    TOTEN  =      -223.51771210 eV

  energy without entropy =     -223.51771210  energy(sigma->0) =     -223.51771210


--------------------------------------------------------------------------------------------------------




----------------------------------------- Iteration    1(   6)  ---------------------------------------


    POTLOK:  cpu time    0.38: real time    0.38
    SETDIJ:  cpu time    0.04: real time    0.03
     EDDAV:  cpu time  343.56: real time  344.78
 BZINTS: Fermi energy:  2.988773;495.000000 electrons
         Band energy:***********;  BLOECHL correction:  0.000000
       DOS:  cpu time    0.06: real time    0.06
    CHARGE:  cpu time    8.38: real time    8.40
    MIXING:  cpu time    0.02: real time    0.02
    --------------------------------------------
      LOOP:  cpu time  352.43: real time  353.70

 eigenvalue-minimisations  : 12864
 total energy-change (2. order) : 0.1406449E+02  (-0.2353616E+01)
 number of electron     495.0000023 magnetization 
 augmentation part      132.0737765 magnetization 

 Broyden mixing:
  rms(total) = 0.25689E+01    rms(broyden)= 0.25689E+01
  rms(prec ) = 0.26471E+01
  weight for this iteration     100.00

 eigenvalues of (default mixing * dielectric matrix)
  average eigenvalue GAMMA=   1.7113
  1.7113

 Free energy of the ion-electron system (eV)
  ---------------------------------------------------
  alpha Z        PSCENC =      1306.21815755
  Ewald energy   TEWEN  =    -31783.29780351
  -Hartree energ DENC   =    -13281.23838335
  -exchange      EXHF   =         0.00000000
  -V(xc)+E(xc)   XCENC  =      1071.19055541
  PAW double counting   =     46000.52820938   -45425.12807453
  entropy T*S    EENTRO =         0.00000000
  eigenvalues    EBANDS =     -2247.06789810
  atomic energy  EATOM  =     44149.34201756
  ---------------------------------------------------
  free energy    TOTEN  =      -209.45321959 eV

  energy without entropy =     -209.45321959  energy(sigma->0) =     -209.45321959


--------------------------------------------------------------------------------------------------------




----------------------------------------- Iteration    1(   7)  ---------------------------------------


    POTLOK:  cpu time    0.38: real time    0.38
    SETDIJ:  cpu time    0.03: real time    0.03
     EDDAV:  cpu time  338.76: real time  339.96
 BZINTS: Fermi energy:  3.290728;495.000000 electrons
         Band energy:***********;  BLOECHL correction:  0.000000
       DOS:  cpu time    0.06: real time    0.06
    CHARGE:  cpu time    8.36: real time    8.39
    MIXING:  cpu time    0.02: real time    0.02
    --------------------------------------------
      LOOP:  cpu time  347.61: real time  348.85

 eigenvalue-minimisations  : 12576
 total energy-change (2. order) : 0.2115870E+00  (-0.1718953E+01)
 number of electron     495.0000023 magnetization 
 augmentation part      132.9359263 magnetization 

 Broyden mixing:
  rms(total) = 0.11009E+01    rms(broyden)= 0.11009E+01
  rms(prec ) = 0.11327E+01
  weight for this iteration     100.00

 eigenvalues of (default mixing * dielectric matrix)
  average eigenvalue GAMMA=   1.7234
  1.2283  2.2186

 Free energy of the ion-electron system (eV)
  ---------------------------------------------------
  alpha Z        PSCENC =      1306.21815755
  Ewald energy   TEWEN  =    -31783.29780351
  -Hartree energ DENC   =    -13286.74061111
  -exchange      EXHF   =         0.00000000
  -V(xc)+E(xc)   XCENC  =      1075.88893092
  PAW double counting   =     54553.01239247   -53969.90914603
  entropy T*S    EENTRO =         0.00000000
  eigenvalues    EBANDS =     -2253.75557043
  atomic energy  EATOM  =     44149.34201756
  ---------------------------------------------------
  free energy    TOTEN  =      -209.24163258 eV

  energy without entropy =     -209.24163258  energy(sigma->0) =     -209.24163258


--------------------------------------------------------------------------------------------------------




----------------------------------------- Iteration    1(   8)  ---------------------------------------


    POTLOK:  cpu time    0.40: real time    0.40
    SETDIJ:  cpu time    0.03: real time    0.03
     EDDAV:  cpu time  337.57: real time  338.77
 BZINTS: Fermi energy:  3.216029;495.000000 electrons
         Band energy:***********;  BLOECHL correction:  0.000000
       DOS:  cpu time    0.06: real time    0.06
    CHARGE:  cpu time    8.41: real time    8.44
    MIXING:  cpu time    0.02: real time    0.02
    --------------------------------------------
      LOOP:  cpu time  346.49: real time  347.73

 eigenvalue-minimisations  : 12576
 total energy-change (2. order) : 0.5061620E-01  (-0.2708821E+00)
 number of electron     495.0000023 magnetization 
 augmentation part      132.4933290 magnetization 

 Broyden mixing:
  rms(total) = 0.38105E+00    rms(broyden)= 0.38105E+00
  rms(prec ) = 0.41481E+00
  weight for this iteration     100.00

 eigenvalues of (default mixing * dielectric matrix)
  average eigenvalue GAMMA=   1.4536
  2.3141  1.0233  1.0233

 Free energy of the ion-electron system (eV)
  ---------------------------------------------------
  alpha Z        PSCENC =      1306.21815755
  Ewald energy   TEWEN  =    -31783.29780351
  -Hartree energ DENC   =    -13307.03458570
  -exchange      EXHF   =         0.00000000
  -V(xc)+E(xc)   XCENC  =      1076.54420772
  PAW double counting   =     58776.27222620   -58198.87215641
  entropy T*S    EENTRO =         0.00000000
  eigenvalues    EBANDS =     -2228.36307979
  atomic energy  EATOM  =     44149.34201756
  ---------------------------------------------------
  free energy    TOTEN  =      -209.19101638 eV

  energy without entropy =     -209.19101638  energy(sigma->0) =     -209.19101638


--------------------------------------------------------------------------------------------------------




----------------------------------------- Iteration    1(   9)  ---------------------------------------


    POTLOK:  cpu time    0.40: real time    0.39
    SETDIJ:  cpu time    0.03: real time    0.03
     EDDAV:  cpu time  341.40: real time  342.62
 BZINTS: Fermi energy:  3.217247;495.000000 electrons
         Band energy:***********;  BLOECHL correction:  0.000000
       DOS:  cpu time    0.06: real time    0.06
    CHARGE:  cpu time    8.51: real time    8.54
    MIXING:  cpu time    0.02: real time    0.02
    --------------------------------------------
      LOOP:  cpu time  350.42: real time  351.67

 eigenvalue-minimisations  : 12736
 total energy-change (2. order) : 0.3690461E-01  (-0.4542894E-01)
 number of electron     495.0000023 magnetization 
 augmentation part      132.5511633 magnetization 

 Broyden mixing:
  rms(total) = 0.15073E+00    rms(broyden)= 0.15073E+00
  rms(prec ) = 0.16943E+00
  weight for this iteration     100.00

 eigenvalues of (default mixing * dielectric matrix)
  average eigenvalue GAMMA=   1.3979
  2.2734  1.2790  1.2790  0.7600

 Free energy of the ion-electron system (eV)
  ---------------------------------------------------
  alpha Z        PSCENC =      1306.21815755
  Ewald energy   TEWEN  =    -31783.29780351
  -Hartree energ DENC   =    -13299.36820912
  -exchange      EXHF   =         0.00000000
  -V(xc)+E(xc)   XCENC  =      1076.75056994
  PAW double counting   =     59571.63820822   -58992.30824891
  entropy T*S    EENTRO =         0.00000000
  eigenvalues    EBANDS =     -2238.12880351
  atomic energy  EATOM  =     44149.34201756
  ---------------------------------------------------
  free energy    TOTEN  =      -209.15411177 eV

  energy without entropy =     -209.15411177  energy(sigma->0) =     -209.15411177


--------------------------------------------------------------------------------------------------------




----------------------------------------- Iteration    1(  10)  ---------------------------------------


    POTLOK:  cpu time    0.39: real time    0.39
    SETDIJ:  cpu time    0.03: real time    0.03
     EDDAV:  cpu time  325.22: real time  326.38
 BZINTS: Fermi energy:  3.225323;495.000000 electrons
         Band energy:***********;  BLOECHL correction:  0.000000
       DOS:  cpu time    0.06: real time    0.06
    CHARGE:  cpu time    8.45: real time    8.48
    MIXING:  cpu time    0.02: real time    0.02
    --------------------------------------------
      LOOP:  cpu time  334.18: real time  335.37

 eigenvalue-minimisations  : 12032
 total energy-change (2. order) : 0.1074838E-03  (-0.1451165E-01)
 number of electron     495.0000023 magnetization 
 augmentation part      132.6175661 magnetization 

 Broyden mixing:
  rms(total) = 0.69790E-01    rms(broyden)= 0.69790E-01
  rms(prec ) = 0.83923E-01
  weight for this iteration     100.00

 eigenvalues of (default mixing * dielectric matrix)
  average eigenvalue GAMMA=   1.3353
  2.2076  1.6615  1.1154  1.1154  0.5766

 Free energy of the ion-electron system (eV)
  ---------------------------------------------------
  alpha Z        PSCENC =      1306.21815755
  Ewald energy   TEWEN  =    -31783.29780351
  -Hartree energ DENC   =    -13294.95750969
  -exchange      EXHF   =         0.00000000
  -V(xc)+E(xc)   XCENC  =      1076.83666693
  PAW double counting   =     59733.51405054   -59153.05988475
  entropy T*S    EENTRO =         0.00000000
  eigenvalues    EBANDS =     -2243.74969893
  atomic energy  EATOM  =     44149.34201756
  ---------------------------------------------------
  free energy    TOTEN  =      -209.15400428 eV

  energy without entropy =     -209.15400428  energy(sigma->0) =     -209.15400428


--------------------------------------------------------------------------------------------------------




----------------------------------------- Iteration    1(  11)  ---------------------------------------


    POTLOK:  cpu time    0.39: real time    0.39
    SETDIJ:  cpu time    0.03: real time    0.03
     EDDAV:  cpu time  313.78: real time  314.90
 BZINTS: Fermi energy:  3.222990;495.000000 electrons
         Band energy:***********;  BLOECHL correction:  0.000000
       DOS:  cpu time    0.06: real time    0.06
    CHARGE:  cpu time    8.41: real time    8.44
    MIXING:  cpu time    0.02: real time    0.02
    --------------------------------------------
      LOOP:  cpu time  322.70: real time  323.85

 eigenvalue-minimisations  : 11520
 total energy-change (2. order) : 0.9383634E-03  (-0.2415467E-02)
 number of electron     495.0000023 magnetization 
 augmentation part      132.6107429 magnetization 

 Broyden mixing:
  rms(total) = 0.37029E-01    rms(broyden)= 0.37029E-01
  rms(prec ) = 0.41011E-01
  weight for this iteration     100.00

 eigenvalues of (default mixing * dielectric matrix)
  average eigenvalue GAMMA=   1.3559
  2.2582  2.2582  1.1235  1.1235  0.8232  0.5487

 Free energy of the ion-electron system (eV)
  ---------------------------------------------------
  alpha Z        PSCENC =      1306.21815755
  Ewald energy   TEWEN  =    -31783.29780351
  -Hartree energ DENC   =    -13296.12619939
  -exchange      EXHF   =         0.00000000
  -V(xc)+E(xc)   XCENC  =      1076.87241692
  PAW double counting   =     59686.11554947   -59105.82358903
  entropy T*S    EENTRO =         0.00000000
  eigenvalues    EBANDS =     -2242.45361550
  atomic energy  EATOM  =     44149.34201756
  ---------------------------------------------------
  free energy    TOTEN  =      -209.15306592 eV

  energy without entropy =     -209.15306592  energy(sigma->0) =     -209.15306592


--------------------------------------------------------------------------------------------------------




----------------------------------------- Iteration    1(  12)  ---------------------------------------


    POTLOK:  cpu time    0.39: real time    0.39
    SETDIJ:  cpu time    0.04: real time    0.03
     EDDAV:  cpu time  332.43: real time  333.61
 BZINTS: Fermi energy:  3.223307;495.000000 electrons
         Band energy:***********;  BLOECHL correction:  0.000000
       DOS:  cpu time    0.06: real time    0.06
    CHARGE:  cpu time    8.49: real time    8.52
    MIXING:  cpu time    0.02: real time    0.02
    --------------------------------------------
      LOOP:  cpu time  341.43: real time  342.64

 eigenvalue-minimisations  : 12320
 total energy-change (2. order) :-0.1866170E-02  (-0.1391962E-02)
 number of electron     495.0000023 magnetization 
 augmentation part      132.6017563 magnetization 

 Broyden mixing:
  rms(total) = 0.26379E-01    rms(broyden)= 0.26379E-01
  rms(prec ) = 0.37319E-01
  weight for this iteration     100.00

 eigenvalues of (default mixing * dielectric matrix)
  average eigenvalue GAMMA=   1.2781
  2.4023  2.4023  1.1464  1.1464  0.9126  0.5525  0.3841

 Free energy of the ion-electron system (eV)
  ---------------------------------------------------
  alpha Z        PSCENC =      1306.21815755
  Ewald energy   TEWEN  =    -31783.29780351
  -Hartree energ DENC   =    -13297.08981158
  -exchange      EXHF   =         0.00000000
  -V(xc)+E(xc)   XCENC  =      1076.93277330
  PAW double counting   =     59678.34992431   -59098.04060412
  entropy T*S    EENTRO =         0.00000000
  eigenvalues    EBANDS =     -2241.56958561
  atomic energy  EATOM  =     44149.34201756
  ---------------------------------------------------
  free energy    TOTEN  =      -209.15493209 eV

  energy without entropy =     -209.15493209  energy(sigma->0) =     -209.15493209


--------------------------------------------------------------------------------------------------------




----------------------------------------- Iteration    1(  13)  ---------------------------------------


    POTLOK:  cpu time    0.38: real time    0.39
    SETDIJ:  cpu time    0.04: real time    0.03
     EDDAV:  cpu time  276.43: real time  277.41
 BZINTS: Fermi energy:  3.223116;495.000000 electrons
         Band energy:***********;  BLOECHL correction:  0.000000
       DOS:  cpu time    0.06: real time    0.06
    CHARGE:  cpu time    8.34: real time    8.37
    MIXING:  cpu time    0.02: real time    0.02
    --------------------------------------------
      LOOP:  cpu time  285.27: real time  286.32

 eigenvalue-minimisations  :  9824
 total energy-change (2. order) : 0.2958430E-03  (-0.3856994E-03)
 number of electron     495.0000023 magnetization 
 augmentation part      132.5982912 magnetization 

 Broyden mixing:
  rms(total) = 0.12442E-01    rms(broyden)= 0.12442E-01
  rms(prec ) = 0.14179E-01
  weight for this iteration     100.00

 eigenvalues of (default mixing * dielectric matrix)
  average eigenvalue GAMMA=   1.2231
  2.4193  2.4193  1.1789  1.1789  0.9673  0.7598  0.5151  0.3463

 Free energy of the ion-electron system (eV)
  ---------------------------------------------------
  alpha Z        PSCENC =      1306.21815755
  Ewald energy   TEWEN  =    -31783.29780351
  -Hartree energ DENC   =    -13297.75217516
  -exchange      EXHF   =         0.00000000
  -V(xc)+E(xc)   XCENC  =      1076.97276488
  PAW double counting   =     59659.99362078   -59079.65686604
  entropy T*S    EENTRO =         0.00000000
  eigenvalues    EBANDS =     -2240.97435231
  atomic energy  EATOM  =     44149.34201756
  ---------------------------------------------------
  free energy    TOTEN  =      -209.15463625 eV

  energy without entropy =     -209.15463625  energy(sigma->0) =     -209.15463625


--------------------------------------------------------------------------------------------------------




----------------------------------------- Iteration    1(  14)  ---------------------------------------


    POTLOK:  cpu time    0.39: real time    0.39
    SETDIJ:  cpu time    0.03: real time    0.03
     EDDAV:  cpu time  257.70: real time  258.61
 BZINTS: Fermi energy:  3.223931;495.000000 electrons
         Band energy:***********;  BLOECHL correction:  0.000000
       DOS:  cpu time    0.06: real time    0.06
    --------------------------------------------
      LOOP:  cpu time  258.18: real time  259.11

 eigenvalue-minimisations  :  8960
 total energy-change (2. order) :-0.3431202E-04  (-0.4225016E-04)
 number of electron     495.0000023 magnetization 
 augmentation part      132.5982912 magnetization 

 Free energy of the ion-electron system (eV)
  ---------------------------------------------------
  alpha Z        PSCENC =      1306.21815755
  Ewald energy   TEWEN  =    -31783.29780351
  -Hartree energ DENC   =    -13298.17648556
  -exchange      EXHF   =         0.00000000
  -V(xc)+E(xc)   XCENC  =      1076.99596869
  PAW double counting   =     59632.33555304   -59051.96362999
  entropy T*S    EENTRO =         0.00000000
  eigenvalues    EBANDS =     -2240.60844835
  atomic energy  EATOM  =     44149.34201756
  ---------------------------------------------------
  free energy    TOTEN  =      -209.15467056 eV

  energy without entropy =     -209.15467056  energy(sigma->0) =     -209.15467056


--------------------------------------------------------------------------------------------------------




 average (electrostatic) potential at core
  the test charge radii are     1.0698  1.0774  0.9698
  (the norm of the test charge is              1.0000)
       1 -37.4345       2 -37.4423       3 -37.4439       4 -37.4412       5 -37.4422
       6 -37.4422       7 -37.4433       8 -37.4450       9 -37.1932      10 -97.0516
      11 -97.0502      12 -97.0508      13 -97.0515      14 -97.0501      15 -97.0509
      16 -97.0635      17 -97.0235      18 -97.0285      19 -97.0260      20 -97.0261
      21 -97.0645      22 -97.0253      23 -97.0280      24 -97.0599      25 -87.0452
      26 -87.1426      27 -87.1384      28 -87.1422      29 -87.1445      30 -87.0540
      31 -87.1438      32 -87.1397      33 -87.1442      34 -87.1400      35 -87.1438
      36 -87.1428      37 -87.1423      38 -87.1382      39 -87.0939      40 -87.0728
      41 -87.0993      42 -87.0897      43 -87.0891      44 -87.0680      45 -87.0678
      46 -87.0911      47 -87.0983      48 -87.0732      49 -87.0941      50 -87.0721
      51 -87.0894      52 -87.0907      53 -87.0671      54 -87.0992      55 -87.0938
      56 -87.0891
 
 
 
 E-fermi :   3.2239     XC(G=0):  -9.3691     alpha+bet : -9.6655


 k-point     1 :       0.0000    0.0000    0.0000
  band No.  band energies     occupation 
      1     -10.7412      2.00000
      2     -10.7411      2.00000
      3     -10.7337      2.00000
      4     -10.6598      2.00000
      5     -10.6413      2.00000
      6     -10.6412      2.00000
      7     -10.6333      2.00000
      8     -10.6281      2.00000
      9     -10.6276      2.00000
     10     -10.5783      2.00000
     11     -10.5741      2.00000
     12     -10.5732      2.00000
     13     -10.5722      2.00000
     14     -10.5119      2.00000
     15     -10.5117      2.00000
     16     -10.4474      2.00000
     17     -10.4469      2.00000
     18     -10.4455      2.00000
     19     -10.4369      2.00000
     20     -10.4083      2.00000
     21     -10.4065      2.00000
     22     -10.3776      2.00000
     23     -10.3585      2.00000
     24     -10.3573      2.00000
     25     -10.3369      2.00000
     26     -10.3246      2.00000
     27     -10.3164      2.00000
     28     -10.3157      2.00000
     29     -10.3156      2.00000
     30     -10.3148      2.00000
     31     -10.3051      2.00000
     32     -10.3017      2.00000
     33     -10.3001      2.00000
     34     -10.2945      2.00000
     35     -10.2937      2.00000
     36     -10.2759      2.00000
     37     -10.2676      2.00000
     38     -10.2624      2.00000
     39     -10.2614      2.00000
     40     -10.2532      2.00000
     41     -10.2526      2.00000
     42     -10.2510      2.00000
     43     -10.2497      2.00000
     44     -10.2451      2.00000
     45     -10.2450      2.00000
     46     -10.2437      2.00000
     47     -10.2428      2.00000
     48     -10.2418      2.00000
     49     -10.2407      2.00000
     50     -10.2276      2.00000
     51     -10.2273      2.00000
     52     -10.2272      2.00000
     53     -10.2270      2.00000
     54     -10.2266      2.00000
     55     -10.2196      2.00000
     56     -10.2193      2.00000
     57     -10.2161      2.00000
     58     -10.2142      2.00000
     59     -10.2135      2.00000
     60     -10.2133      2.00000
     61     -10.2120      2.00000
     62     -10.2118      2.00000
     63     -10.2043      2.00000
     64     -10.2026      2.00000
     65     -10.2023      2.00000
     66     -10.2016      2.00000
     67     -10.1972      2.00000
     68     -10.1965      2.00000
     69     -10.1952      2.00000
     70     -10.1830      2.00000
     71     -10.1826      2.00000
     72     -10.1794      2.00000
     73     -10.1788      2.00000
     74     -10.1773      2.00000
     75     -10.1650      2.00000
     76      -9.4116      2.00000
     77      -8.9655      2.00000
     78      -8.9638      2.00000
     79      -8.9532      2.00000
     80      -8.9519      2.00000
     81      -8.9088      2.00000
     82      -8.8264      2.00000
     83      -8.4641      2.00000
     84      -8.2859      2.00000
     85      -8.2855      2.00000
     86      -8.2611      2.00000
     87      -8.2544      2.00000
     88      -8.2534      2.00000
     89      -8.2065      2.00000
     90      -8.1580      2.00000
     91      -8.1576      2.00000
     92      -8.1295      2.00000
     93      -8.0261      2.00000
     94      -8.0257      2.00000
     95      -7.9513      2.00000
     96      -7.9404      2.00000
     97      -7.9390      2.00000
     98      -7.9385      2.00000
     99      -7.6739      2.00000
    100      -7.6724      2.00000
    101      -7.5832      2.00000
    102      -7.5455      2.00000
    103      -7.5451      2.00000
    104      -7.5401      2.00000
    105      -7.5146      2.00000
    106      -7.5139      2.00000
    107      -7.4554      2.00000
    108      -4.2788      2.00000
    109      -4.2702      2.00000
    110      -4.2701      2.00000
    111      -4.2646      2.00000
    112      -4.2625      2.00000
    113      -4.2622      2.00000
    114      -4.2308      2.00000
    115      -4.2295      2.00000
    116      -4.1800      2.00000
    117      -4.1778      2.00000
    118      -4.1772      2.00000
    119      -4.1676      2.00000
    120      -4.1670      2.00000
    121      -4.1659      2.00000
    122      -4.1128      2.00000
    123      -4.1128      2.00000
    124      -4.1027      2.00000
    125      -4.1027      2.00000
    126      -4.0995      2.00000
    127      -4.0915      2.00000
    128      -4.0905      2.00000
    129      -4.0898      2.00000
    130      -4.0886      2.00000
    131      -4.0878      2.00000
    132      -4.0876      2.00000
    133      -4.0871      2.00000
    134      -4.0867      2.00000
    135      -4.0857      2.00000
    136      -4.0856      2.00000
    137      -4.0831      2.00000
    138      -4.0829      2.00000
    139      -4.0758      2.00000
    140      -4.0705      2.00000
    141      -4.0700      2.00000
    142      -4.0680      2.00000
    143      -4.0677      2.00000
    144      -4.0590      2.00000
    145      -4.0534      2.00000
    146      -4.0526      2.00000
    147      -4.0490      2.00000
    148      -3.8564      2.00000
    149      -3.8379      2.00000
    150      -3.8373      2.00000
    151      -3.7454      2.00000
    152      -3.7441      2.00000
    153      -2.1203      2.00000
    154      -2.0052      2.00000
    155      -2.0050      2.00000
    156      -1.9702      2.00000
    157      -1.6127      2.00000
    158      -1.6112      2.00000
    159      -1.6018      2.00000
    160      -1.5873      2.00000
    161      -1.5861      2.00000
    162      -1.5041      2.00000
    163      -1.3573      2.00000
    164      -1.1964      2.00000
    165      -1.1961      2.00000
    166      -1.1853      2.00000
    167      -1.1846      2.00000
    168      -1.1519      2.00000
    169      -0.4961      2.00000
    170      -0.3332      2.00000
    171      -0.3329      2.00000
    172      -0.2570      2.00000
    173      -0.2568      2.00000
    174      -0.2438      2.00000
    175      -0.2430      2.00000
    176      -0.1939      2.00000
    177      -0.1715      2.00000
    178       0.3842      2.00000
    179       0.4086      2.00000
    180       0.4486      2.00000
    181       0.4490      2.00000
    182       0.5013      2.00000
    183       0.5015      2.00000
    184       0.7263      2.00000
    185       0.7265      2.00000
    186       0.7468      2.00000
    187       0.7470      2.00000
    188       0.7580      2.00000
    189       0.8522      2.00000
    190       0.9481      2.00000
    191       0.9840      2.00000
    192       0.9841      2.00000
    193       0.9989      2.00000
    194       0.9991      2.00000
    195       1.0034      2.00000
    196       1.0265      2.00000
    197       1.0348      2.00000
    198       1.0731      2.00000
    199       1.0735      2.00000
    200       1.0901      2.00000
    201       1.0908      2.00000
    202       1.1258      2.00000
    203       1.1261      2.00000
    204       1.2287      2.00000
    205       1.5110      2.00000
    206       1.5823      2.00000
    207       1.5829      2.00000
    208       1.6326      2.00000
    209       1.6465      2.00000
    210       1.6470      2.00000
    211       1.6655      2.00000
    212       1.6658      2.00000
    213       1.6665      2.00000
    214       1.9196      2.00000
    215       1.9522      2.00000
    216       1.9525      2.00000
    217       1.9836      2.00000
    218       1.9838      2.00000
    219       2.0515      2.00000
    220       2.2362      2.00000
    221       2.2518      2.00000
    222       2.2582      2.00000
    223       2.2590      2.00000
    224       2.3091      2.00000
    225       2.3098      2.00000
    226       2.7029      2.00000
    227       2.7031      2.00000
    228       2.7185      2.00000
    229       2.7819      2.00000
    230       2.7998      2.00000
    231       2.8050      2.00000
    232       2.8051      2.00000
    233       2.8403      2.00000
    234       2.8410      2.00000
    235       2.8562      2.00000
    236       2.8565      2.00000
    237       2.8692      2.00000
    238       2.9649      2.00000
    239       2.9656      2.00000
    240       3.0091      2.00000
    241       3.0328      2.00000
    242       3.0344      2.00000
    243       3.0346      2.00000
    244       3.0363      2.00000
    245       3.0368      2.00000
    246       3.0434      2.00000
    247       3.2377      1.97219
    248       3.2398      0.49724
    249       4.2330      0.00000
    250       5.1473      0.00000
    251       5.1476      0.00000
    252       5.2633      0.00000
    253       5.5348      0.00000
    254       6.3061      0.00000
    255       6.3068      0.00000
    256       6.3280      0.00000
    257       6.3289      0.00000
    258       6.3422      0.00000
    259       6.4253      0.00000
    260       6.5893      0.00000
    261       6.6007      0.00000
    262       6.6020      0.00000
    263       6.6189      0.00000
    264       6.6199      0.00000
    265       6.9870      0.00000
    266       7.2986      0.00000
    267       7.4953      0.00000
    268       7.5483      0.00000
    269       7.5486      0.00000
    270       7.6057      0.00000
    271       7.6064      0.00000
    272       7.6337      0.00000
    273       7.6344      0.00000
    274       7.6411      0.00000
    275       7.7831      0.00000
    276       8.5565      0.00000
    277       8.5566      0.00000
    278       8.5694      0.00000
    279       8.5695      0.00000
    280       8.6020      0.00000
    281       8.6076      0.00000
    282       8.7934      0.00000
    283       8.7958      0.00000
    284       8.7959      0.00000
    285       8.8182      0.00000
    286       8.9192      0.00000
    287       8.9193      0.00000
    288       9.0971      0.00000
    289       9.0973      0.00000
    290       9.1787      0.00000
    291       9.5686      0.00000
    292       9.5687      0.00000
    293       9.8316      0.00000
    294       9.8370      0.00000
    295       9.8375      0.00000
    296       9.8483      0.00000
    297       9.8488      0.00000
    298       9.8711      0.00000
    299       9.9629      0.00000
    300       9.9638      0.00000
    301       9.9809      0.00000
    302      10.0920      0.00000
    303      10.1109      0.00000
    304      10.1117      0.00000
    305      10.1380      0.00000
    306      10.1727      0.00000
    307      10.1739      0.00000
    308      10.2229      0.00000
    309      10.2264      0.00000
    310      10.2283      0.00000
    311      10.2465      0.00000
    312      10.2520      0.00000
    313      10.2887      0.00000
    314      10.3317      0.00000
    315      10.3682      0.00000
    316      10.3764      0.00000
    317      10.4007      0.00000
    318      10.4144      0.00000
    319      10.4327      0.00000
    320      10.4484      0.00000

 k-point     2 :       0.3333    0.0000    0.0000
  band No.  band energies     occupation 
      1     -10.7264      2.00000
      2     -10.7258      2.00000
      3     -10.7151      2.00000
      4     -10.6776      2.00000
      5     -10.6772      2.00000
      6     -10.6634      2.00000
      7     -10.6586      2.00000
      8     -10.6419      2.00000
      9     -10.6231      2.00000
     10     -10.6003      2.00000
     11     -10.5629      2.00000
     12     -10.5621      2.00000
     13     -10.5322      2.00000
     14     -10.5137      2.00000
     15     -10.4652      2.00000
     16     -10.4600      2.00000
     17     -10.4517      2.00000
     18     -10.4380      2.00000
     19     -10.4222      2.00000
     20     -10.3972      2.00000
     21     -10.3937      2.00000
     22     -10.3725      2.00000
     23     -10.3644      2.00000
     24     -10.3552      2.00000
     25     -10.3380      2.00000
     26     -10.3348      2.00000
     27     -10.3310      2.00000
     28     -10.3294      2.00000
     29     -10.3220      2.00000
     30     -10.3171      2.00000
     31     -10.3142      2.00000
     32     -10.3121      2.00000
     33     -10.3004      2.00000
     34     -10.2941      2.00000
     35     -10.2827      2.00000
     36     -10.2697      2.00000
[...]
 13        0.721   0.594   9.949  11.263
 14        0.721   0.594   9.949  11.263
 15        0.721   0.594   9.949  11.263
 16        0.721   0.598   9.949  11.267
 17        0.721   0.597   9.949  11.267
 18        0.721   0.595   9.948  11.265
 19        0.721   0.595   9.948  11.265
 20        0.721   0.597   9.949  11.267
 21        0.721   0.598   9.949  11.267
 22        0.721   0.597   9.949  11.267
 23        0.721   0.595   9.948  11.265
 24        0.721   0.598   9.949  11.267
 25        1.338   2.379   0.000   3.717
 26        1.340   2.374   0.000   3.714
 27        1.340   2.375   0.000   3.714
 28        1.340   2.375   0.000   3.715
 29        1.340   2.375   0.000   3.715
 30        1.338   2.379   0.000   3.717
 31        1.340   2.375   0.000   3.715
 32        1.340   2.375   0.000   3.715
 33        1.340   2.375   0.000   3.715
 34        1.340   2.375   0.000   3.715
 35        1.340   2.375   0.000   3.715
 36        1.340   2.375   0.000   3.715
 37        1.340   2.375   0.000   3.714
 38        1.340   2.374   0.000   3.714
 39        1.339   2.375   0.000   3.714
 40        1.340   2.368   0.000   3.708
 41        1.339   2.378   0.000   3.717
 42        1.339   2.378   0.000   3.717
 43        1.339   2.375   0.000   3.714
 44        1.340   2.365   0.000   3.705
 45        1.340   2.367   0.000   3.707
 46        1.339   2.378   0.000   3.717
 47        1.339   2.378   0.000   3.717
 48        1.340   2.366   0.000   3.706
 49        1.339   2.375   0.000   3.714
 50        1.340   2.367   0.000   3.708
 51        1.339   2.375   0.000   3.714
 52        1.339   2.378   0.000   3.717
 53        1.340   2.366   0.000   3.707
 54        1.339   2.378   0.000   3.717
 55        1.339   2.375   0.000   3.714
 56        1.339   2.375   0.000   3.714
------------------------------------------------
tot       57.352  87.471 235.285 380.108
 
    CHARGE:  cpu time    8.37: real time    8.40
    FORLOC:  cpu time    0.14: real time    0.15
    FORNL :  cpu time  111.45: real time  111.79
    FORCOR:  cpu time    0.50: real time    0.50
    FORHAR:  cpu time    0.22: real time    0.22
    MIXING:  cpu time    0.01: real time    0.01
    OFIELD:  cpu time    0.00: real time    0.00

 VOLUME and BASIS-vectors are now :
 -----------------------------------------------------------------------------
  energy-cutoff  :      600.00
  volume of cell :     1339.13
      direct lattice vectors                 reciprocal lattice vectors
    11.022353692  0.000000000  0.000000000     0.090724724  0.000000000  0.000000000
     0.000000000 11.022353692  0.000000000     0.000000000  0.090724724  0.000000000
     0.000000000  0.000000000 11.022353692     0.000000000  0.000000000  0.090724724

  length of vectors
    11.022353692 11.022353692 11.022353692     0.090724724  0.090724724  0.090724724


 FORCES acting on ions
    electron-ion (+dipol)            ewald-force                    non-local-force                 convergence-correction
 -----------------------------------------------------------------------------------------------
   0.635E+00 0.595E+00 0.623E+00   -.666E+00 -.645E+00 -.645E+00   0.424E-01 0.417E-01 0.459E-01   -.203E-02 0.174E-01 -.159E-01
   0.696E+01 0.159E+01 0.155E+01   -.712E+01 -.135E+01 -.135E+01   0.175E+00 -.221E+00 -.228E+00   -.398E-03 -.303E-01 0.151E-01
   0.161E+01 0.161E+01 0.696E+01   -.137E+01 -.135E+01 -.712E+01   -.222E+00 -.222E+00 0.177E+00   -.221E-01 -.474E-01 -.130E-01
   0.155E+01 0.693E+01 0.156E+01   -.136E+01 -.711E+01 -.139E+01   -.221E+00 0.175E+00 -.229E+00   0.241E-01 0.199E-01 0.438E-01
   -.218E+01 -.729E+01 -.216E+01   0.199E+01 0.745E+01 0.198E+01   0.237E+00 -.140E+00 0.244E+00   -.242E-01 -.194E-01 -.437E-01
   -.308E+00 -.285E+00 -.297E+00   0.382E+00 0.378E+00 0.361E+00   -.828E-01 -.826E-01 -.867E-01   0.181E-02 -.176E-01 0.158E-01
   -.736E+01 -.220E+01 -.218E+01   0.750E+01 0.195E+01 0.197E+01   -.140E+00 0.236E+00 0.244E+00   0.934E-03 0.301E-01 -.151E-01
   -.221E+01 -.225E+01 -.735E+01   0.197E+01 0.199E+01 0.748E+01   0.238E+00 0.238E+00 -.142E+00   0.224E-01 0.471E-01 0.135E-01
   -.683E+00 -.733E+00 -.718E+00   0.690E+00 0.739E+00 0.724E+00   -.604E-03 0.788E-03 0.533E-03   -.154E-03 -.104E-03 -.205E-03
   -.114E+01 0.132E+01 0.114E+00   0.108E+01 -.130E+01 -.109E+00   0.423E-01 -.343E-01 -.807E-03   -.736E-02 0.404E-01 0.162E-03
   0.133E+01 0.109E+00 -.115E+01   -.126E+01 -.105E+00 0.105E+01   -.346E-01 -.313E-03 0.371E-01   -.135E-01 0.179E-02 0.373E-01
   0.974E-01 -.110E+01 0.134E+01   -.892E-01 0.106E+01 -.127E+01   -.597E-03 0.442E-01 -.287E-01   -.217E-02 -.328E-01 -.244E-01
   0.131E+01 -.108E+01 0.944E-01   -.126E+01 0.106E+01 -.881E-01   -.331E-01 0.418E-01 -.421E-03   0.721E-02 -.402E-01 -.585E-03
   -.117E+01 0.705E-01 0.134E+01   0.109E+01 -.636E-01 -.125E+01   0.444E-01 0.572E-03 -.282E-01   0.136E-01 -.184E-02 -.375E-01
   0.847E-01 0.130E+01 -.114E+01   -.824E-01 -.128E+01 0.106E+01   0.451E-03 -.355E-01 0.372E-01   0.195E-02 0.329E-01 0.242E-01
   -.365E+00 0.164E-01 -.185E-01   0.378E+00 -.201E-01 0.148E-01   -.890E-04 0.722E-02 0.801E-02   -.733E-04 0.486E-03 -.694E-04
   -.606E+01 -.598E+01 -.424E+01   0.636E+01 0.637E+01 0.417E+01   -.344E+00 -.345E+00 0.626E-01   0.330E-01 -.533E-01 -.918E-03
   0.595E+01 0.421E+01 0.602E+01   -.634E+01 -.415E+01 -.636E+01   0.378E+00 -.525E-01 0.378E+00   0.271E-01 -.430E-02 -.280E-01
   0.604E+01 0.593E+01 0.420E+01   -.637E+01 -.635E+01 -.414E+01   0.373E+00 0.375E+00 -.516E-01   -.328E-01 0.529E-01 0.803E-03
   -.599E+01 -.426E+01 -.604E+01   0.636E+01 0.419E+01 0.636E+01   -.349E+00 0.628E-01 -.350E+00   -.270E-01 0.429E-02 0.287E-01
   -.165E-01 -.358E+00 -.766E-02   0.132E-01 0.371E+00 0.438E-02   0.737E-02 -.147E-03 0.717E-02   0.873E-04 -.158E-03 -.763E-05
   -.424E+01 -.595E+01 -.609E+01   0.417E+01 0.637E+01 0.636E+01   0.628E-01 -.349E+00 -.349E+00   0.200E-02 -.762E-01 0.673E-01
   0.424E+01 0.592E+01 0.604E+01   -.418E+01 -.636E+01 -.635E+01   -.523E-01 0.378E+00 0.379E+00   -.214E-02 0.766E-01 -.672E-01
   -.227E-02 -.275E-01 -.355E+00   -.117E-02 0.232E-01 0.369E+00   0.726E-02 0.834E-02 -.505E-03   0.265E-03 0.407E-03 0.437E-04
   0.556E+02 0.556E+02 0.556E+02   -.548E+02 -.548E+02 -.548E+02   -.741E+00 -.740E+00 -.745E+00   -.587E-02 -.277E-01 0.909E-02
   -.582E+02 -.573E+02 0.576E+02   0.576E+02 0.566E+02 -.570E+02   0.604E+00 0.733E+00 -.620E+00   0.876E-02 0.804E-02 -.289E-01
   -.573E+02 0.576E+02 -.582E+02   0.566E+02 -.570E+02 0.576E+02   0.734E+00 -.624E+00 0.601E+00   0.706E-02 0.796E-02 0.859E-02
   0.576E+02 -.582E+02 -.573E+02   -.570E+02 0.576E+02 0.566E+02   -.622E+00 0.603E+00 0.734E+00   0.941E-03 0.575E-02 0.744E-02
   0.581E+02 0.586E+02 -.578E+02   -.574E+02 -.580E+02 0.572E+02   -.760E+00 -.615E+00 0.649E+00   -.739E-02 -.652E-02 0.164E-01
   -.552E+02 -.553E+02 -.552E+02   0.545E+02 0.545E+02 0.545E+02   0.701E+00 0.701E+00 0.706E+00   0.592E-02 0.277E-01 -.893E-02
   0.586E+02 -.578E+02 0.581E+02   -.580E+02 0.572E+02 -.574E+02   -.613E+00 0.653E+00 -.760E+00   -.682E-02 -.154E-01 -.690E-02
   -.578E+02 0.581E+02 0.586E+02   0.572E+02 -.574E+02 -.581E+02   0.653E+00 -.760E+00 -.614E+00   0.187E-01 -.814E-02 -.988E-02
   0.586E+02 0.581E+02 -.578E+02   -.581E+02 -.574E+02 0.572E+02   -.616E+00 -.760E+00 0.649E+00   -.881E-02 -.790E-02 0.289E-01
   0.581E+02 -.578E+02 0.586E+02   -.574E+02 0.572E+02 -.580E+02   -.760E+00 0.653E+00 -.613E+00   -.694E-02 -.795E-02 -.860E-02
   -.578E+02 0.586E+02 0.581E+02   0.572E+02 -.580E+02 -.574E+02   0.651E+00 -.613E+00 -.760E+00   -.103E-02 -.578E-02 -.744E-02
   -.573E+02 -.582E+02 0.576E+02   0.566E+02 0.576E+02 -.570E+02   0.734E+00 0.604E+00 -.619E+00   0.742E-02 0.641E-02 -.163E-01
   -.582E+02 0.576E+02 -.573E+02   0.576E+02 -.570E+02 0.566E+02   0.602E+00 -.623E+00 0.733E+00   0.682E-02 0.154E-01 0.687E-02
   0.576E+02 -.573E+02 -.582E+02   -.570E+02 0.566E+02 0.576E+02   -.623E+00 0.734E+00 0.602E+00   -.187E-01 0.834E-02 0.980E-02
   0.567E+02 0.602E+02 0.602E+02   -.560E+02 -.596E+02 -.595E+02   -.643E+00 -.631E+00 -.624E+00   -.536E-02 0.107E-01 -.218E-01
   -.593E+02 -.593E+02 0.399E+02   0.587E+02 0.587E+02 -.388E+02   0.561E+00 0.562E+00 -.112E+01   0.791E-02 0.501E-02 0.156E-01
   -.580E+02 0.570E+02 -.580E+02   0.574E+02 -.563E+02 0.574E+02   0.650E+00 -.645E+00 0.650E+00   0.664E-02 -.199E-01 0.671E-02
   0.572E+02 0.572E+02 -.566E+02   -.566E+02 -.566E+02 0.559E+02   -.648E+00 -.647E+00 0.634E+00   -.680E-02 -.786E-02 -.500E-02
   -.568E+02 -.599E+02 -.599E+02   0.561E+02 0.593E+02 0.593E+02   0.660E+00 0.660E+00 0.655E+00   0.529E-02 -.106E-01 0.217E-01
   0.593E+02 -.400E+02 0.593E+02   -.588E+02 0.388E+02 -.588E+02   -.534E+00 0.110E+01 -.536E+00   -.948E-02 0.288E-01 -.108E-01
   0.593E+02 0.593E+02 -.400E+02   -.588E+02 -.587E+02 0.389E+02   -.532E+00 -.531E+00 0.112E+01   -.791E-02 -.524E-02 -.156E-01
   0.572E+02 -.566E+02 0.572E+02   -.566E+02 0.559E+02 -.566E+02   -.647E+00 0.628E+00 -.647E+00   -.657E-02 0.200E-01 -.671E-02
   -.580E+02 -.580E+02 0.570E+02   0.573E+02 0.573E+02 -.563E+02   0.650E+00 0.650E+00 -.652E+00   0.693E-02 0.810E-02 0.492E-02
   -.593E+02 0.399E+02 -.593E+02   0.587E+02 -.388E+02 0.587E+02   0.565E+00 -.110E+01 0.568E+00   0.944E-02 -.289E-01 0.109E-01
   0.602E+02 0.567E+02 0.602E+02   -.595E+02 -.561E+02 -.595E+02   -.628E+00 -.643E+00 -.625E+00   -.821E-02 -.253E-01 -.212E-01
   0.399E+02 -.593E+02 -.593E+02   -.388E+02 0.587E+02 0.587E+02   -.111E+01 0.561E+00 0.564E+00   -.244E-02 0.583E-02 0.101E-01
   -.599E+02 -.568E+02 -.599E+02   0.593E+02 0.561E+02 0.593E+02   0.658E+00 0.659E+00 0.655E+00   0.823E-02 0.252E-01 0.212E-01
   -.566E+02 0.572E+02 0.572E+02   0.559E+02 -.566E+02 -.566E+02   0.630E+00 -.647E+00 -.648E+00   0.542E-02 -.737E-02 -.638E-02
   -.400E+02 0.593E+02 0.593E+02   0.389E+02 -.588E+02 -.588E+02   0.111E+01 -.531E+00 -.533E+00   0.237E-02 -.591E-02 -.102E-01
   0.570E+02 -.580E+02 -.580E+02   -.563E+02 0.574E+02 0.574E+02   -.647E+00 0.650E+00 0.651E+00   -.543E-02 0.751E-02 0.643E-02
   0.602E+02 0.602E+02 0.567E+02   -.595E+02 -.595E+02 -.561E+02   -.628E+00 -.629E+00 -.650E+00   -.966E-02 0.962E-02 0.759E-02
   -.599E+02 -.599E+02 -.568E+02   0.593E+02 0.593E+02 0.561E+02   0.658E+00 0.659E+00 0.665E+00   0.958E-02 -.970E-02 -.770E-02
 -----------------------------------------------------------------------------------------------
   -.195E+00 -.195E+00 -.192E+00   -.291E-12 -.178E-12 -.924E-13   0.195E+00 0.194E+00 0.192E+00   0.427E-03 0.670E-03 -.246E-04
 
 
 POSITION                                       TOTAL-FORCE (eV/Angst)
 -----------------------------------------------------------------------------------
     11.01832     11.01831     11.01836         0.009043      0.009254      0.008398
      0.01456      5.52056      5.52048         0.009725     -0.010609     -0.008694
      5.52060      5.52056      0.01445        -0.010044     -0.010407      0.009042
      5.52058      0.01450      5.52057        -0.011173      0.010592     -0.009700
      8.25273      2.74525      8.25277         0.021813     -0.001077      0.019965
      2.76028      2.76022      2.76033        -0.006854     -0.007059     -0.006750
      2.74516      8.25278      8.25282        -0.000575      0.021168      0.019217
      8.25282      8.25274      2.74521         0.020399      0.020574      0.000698
      6.88767      6.88748      6.88759         0.006037      0.006730      0.006477
      4.13184      9.64725      1.37611        -0.025588      0.022959      0.004483
      9.64723      1.37614      4.13194         0.025008      0.004706     -0.023793
      1.37610      4.13189      9.64723         0.005474     -0.025583      0.021729
      9.64722      4.13188      1.37613         0.024143     -0.025159      0.005276
      4.13188      1.37621      9.64722        -0.026575      0.005699      0.022045
      1.37613      9.64723      4.13192         0.004703      0.023705     -0.023309
      6.89056      1.37608      1.37610         0.013168      0.004044      0.004264
      4.14395      4.14397      6.89589        -0.012329     -0.008799     -0.003938
      9.63283      6.88453      9.63276         0.010093      0.002225      0.007002
      9.63280      9.63282      6.88457         0.012782      0.009200      0.001932
      4.14396      6.89590      4.14394        -0.009370     -0.004459     -0.006827
      1.37610      6.89055      1.37612         0.004111      0.012736      0.003883
      6.89589      4.14393      4.14393        -0.004036     -0.007707     -0.009658
      6.88452      9.63282      9.63277         0.001704      0.008450      0.010263
      1.37613      1.37611      6.89059         0.004082      0.004425      0.013133
      4.24026      4.24023      4.24019        -0.000371      0.000567     -0.000954
      6.77756      1.26574      9.75908         0.018045      0.011577     -0.025797
      1.26572      9.75910      6.77751         0.011744     -0.026061      0.016961
      9.75890      6.77750      1.26557        -0.025183      0.017643      0.013948
      1.49401      7.00541      4.01635        -0.049527     -0.045668      0.044569
      9.53988      9.53964      9.53974        -0.025235     -0.024771     -0.023529
      7.00543      4.01642      1.49408        -0.046011      0.044946     -0.051544
      4.01639      1.49402      7.00548         0.044489     -0.049210     -0.045934
      7.00549      1.49412      4.01635        -0.046912     -0.050456      0.044963
      1.49408      4.01644      7.00543        -0.049829      0.044351     -0.045333
      4.01646      7.00532      1.49404         0.044294     -0.045079     -0.051260
      1.26572      6.77747      9.75898         0.011888      0.017776     -0.025204
      6.77750      9.75887      1.26565         0.017609     -0.025585      0.013199
      9.75900      1.26572      6.77749        -0.025376      0.011817      0.017582
      4.23098      9.74851      9.74798         0.000226     -0.006599     -0.002526
      6.76929      6.76926      4.19816         0.017293      0.016896      0.000631
      1.27046      4.24031      1.27045         0.003340      0.004449      0.003790
      1.48398      1.48405      9.54313         0.010863      0.011183     -0.025164
      9.55060      4.02727      4.02732         0.001545      0.013048      0.011139
      7.00458      9.57893      7.00468        -0.001851     -0.005549     -0.001017
      7.00475      7.00465      9.57892        -0.002728     -0.001392     -0.000103
      1.48400      9.54303      1.48405         0.011022     -0.027052      0.010880
      1.27046      1.27045      4.24034         0.003492      0.003433      0.002321
      6.76932      4.19805      6.76929         0.016905      0.006406      0.016133
      9.74812      4.23128      9.74812        -0.004621     -0.001133     -0.003611
      4.19808      6.76934      6.76926         0.002963      0.016052      0.015433
      4.02733      9.55060      4.02725         0.012354      0.001236      0.011620
      9.54306      1.48397      1.48410        -0.026632      0.011219      0.010611
      9.57884      7.00471      7.00466        -0.001177     -0.001597     -0.000530
      4.24040      1.27041      1.27041         0.003655      0.003792      0.004195
      9.74810      9.74811      4.23139        -0.004565     -0.005150     -0.003279
      4.02729      4.02727      9.55063         0.012547      0.013302      0.002672
 -----------------------------------------------------------------------------------
    total drift:                               -0.000000     -0.000062     -0.000056


--------------------------------------------------------------------------------------------------------



  FREE ENERGIE OF THE ION-ELECTRON SYSTEM (eV)
  ---------------------------------------------------
  free  energy   TOTEN  =      -209.15467056 eV

  energy  without entropy=     -209.15467056  energy(sigma->0) =     -209.15467056
 


--------------------------------------------------------------------------------------------------------


    POTLOK:  cpu time    0.43: real time    0.44


--------------------------------------------------------------------------------------------------------


 writing wavefunctions
     LOOP+:  cpu time 4539.13: real time 4620.76
    4ORBIT:  cpu time    0.00: real time    0.00
 


 total charge     
 
# of ion     s       p       d       tot
----------------------------------------
  1        0.412   0.287   9.562  10.262
  2        0.411   0.284   9.561  10.257
  3        0.411   0.284   9.561  10.257
  4        0.411   0.284   9.561  10.256
  5        0.412   0.285   9.561  10.258
  6        0.411   0.285   9.562  10.258
  7        0.412   0.285   9.561  10.258
  8        0.412   0.285   9.561  10.258
  9        0.382   0.282   9.564  10.227
 10        0.721   0.594   9.949  11.263
 11        0.721   0.594   9.949  11.263
 12        0.721   0.594   9.949  11.263
 13        0.721   0.594   9.949  11.263
 14        0.721   0.594   9.949  11.263
 15        0.721   0.594   9.949  11.263
 16        0.721   0.598   9.949  11.267
 17        0.721   0.597   9.949  11.267
 18        0.721   0.595   9.948  11.265
 19        0.721   0.595   9.948  11.265
 20        0.721   0.597   9.949  11.267
 21        0.721   0.598   9.949  11.267
 22        0.721   0.597   9.949  11.267
 23        0.721   0.595   9.948  11.265
 24        0.721   0.598   9.949  11.267
 25        1.338   2.379   0.000   3.717
 26        1.340   2.374   0.000   3.714
 27        1.340   2.375   0.000   3.714
 28        1.340   2.375   0.000   3.715
 29        1.340   2.375   0.000   3.715
 30        1.338   2.379   0.000   3.717
 31        1.340   2.375   0.000   3.715
 32        1.340   2.375   0.000   3.715
 33        1.340   2.375   0.000   3.715
 34        1.340   2.375   0.000   3.715
 35        1.340   2.375   0.000   3.715
 36        1.340   2.375   0.000   3.715
 37        1.340   2.375   0.000   3.714
 38        1.340   2.374   0.000   3.714
 39        1.339   2.375   0.000   3.714
 40        1.340   2.368   0.000   3.708
 41        1.339   2.378   0.000   3.717
 42        1.339   2.378   0.000   3.717
 43        1.339   2.375   0.000   3.714
 44        1.340   2.365   0.000   3.705
 45        1.340   2.367   0.000   3.707
 46        1.339   2.378   0.000   3.717
 47        1.339   2.378   0.000   3.717
 48        1.340   2.366   0.000   3.706
 49        1.339   2.375   0.000   3.714
 50        1.340   2.367   0.000   3.708
 51        1.339   2.375   0.000   3.714
 52        1.339   2.378   0.000   3.717
 53        1.340   2.366   0.000   3.707
 54        1.339   2.378   0.000   3.717
 55        1.339   2.375   0.000   3.714
 56        1.339   2.375   0.000   3.714
------------------------------------------------
tot       57.352  87.471 235.285 380.108
 
 BZINTS: Fermi energy:  3.223931;495.000000 electrons
         Band energy:***********;  BLOECHL correction:  0.000000

 total amount of memory used by VASP on root node   494609. kBytes
========================================================================

   base      :      30000. kBytes
   nonl-proj :     310646. kBytes
   fftplans  :       9474. kBytes
   grid      :      41834. kBytes
   one-center:        870. kBytes
   wavefun   :     101785. kBytes
 
  
  
 General timing and accounting informations for this job:
 ========================================================
  
                  Total CPU time used (sec):     4752.453
                            User time (sec):     4698.118
                          System time (sec):       54.335
                         Elapsed time (sec):     8986.875
  
                   Maximum memory used (kb):      555808.
                   Average memory used (kb):           0.
  
                          Minor page faults:       108844
                          Major page faults:            5
                 Voluntary context switches:      3543931
