 vasp.5.3.5 31Mar14 (build Feb 04 2015 11:56:40) complex                        
  
 executed on             LinuxIFC date 2016.03.23  19:34:50
 running on    8 total cores
 distrk:  each k-point on    8 cores,    1 groups
 distr:  one band on NCORES_PER_BAND=   2 cores,    4 groups


--------------------------------------------------------------------------------------------------------


 INCAR:
 POTCAR:    PAW_PBE Cd 06Sep2000                  
 POTCAR:    PAW_PBE In_d 06Sep2000                
 POTCAR:    PAW_PBE S 06Sep2000                   
 POTCAR:    PAW_PBE Cd 06Sep2000                  
   VRHFIN =Cd : s2 d10                                                          
   LEXCH  = PE                                                                  
   EATOM  =  1293.1815 eV,   95.0462 Ry                                         
                                                                                
   TITEL  = PAW_PBE Cd 06Sep2000                                                
   LULTRA =        F    use ultrasoft PP ?                                      
   IUNSCR =        1    unscreen: 0-lin 1-nonlin 2-no                           
   RPACOR =    2.000    partial core radius                                     
   POMASS =  112.411; ZVAL   =   12.000    mass and valenz                      
   RCORE  =    2.300    outmost cutoff radius                                   
   RWIGS  =    2.980; RWIGS  =    1.577    wigner-seitz radius (au A)           
   ENMAX  =  274.336; ENMIN  =  205.752 eV                                      
   RCLOC  =    2.054    cutoff for local pot                                    
   LCOR   =        T    correct aug charges                                     
   LPAW   =        T    paw PP                                                  
   EAUG   =  456.106                                                            
   DEXC   =    0.000                                                            
   RMAX   =    2.358    core radius for proj-oper                               
   RAUG   =    1.300    factor for augmentation sphere                          
   RDEP   =    2.450    radius for radial grids                                 
   RDEPT  =    1.955    core radius for aug-charge                              
                                                                                
   Atomic configuration                                                         
   12 entries                                                                   
     n  l   j            E        occ.                                          
     1  0  0.50    -26519.7817   2.0000                                         
     2  0  0.50     -3936.9612   2.0000                                         
     2  1  1.50     -3532.2230   6.0000                                         
     3  0  0.50      -733.7908   2.0000                                         
     3  1  1.50      -601.0792   6.0000                                         
     3  2  2.50      -393.5307  10.0000                                         
     4  0  0.50      -105.8977   2.0000                                         
     4  1  1.50       -66.9488   6.0000                                         
     4  2  2.50       -11.7331  10.0000                                         
     5  0  0.50        -5.6592   2.0000                                         
     5  1  0.50        -1.3606   0.0000                                         
     4  3  2.50        -1.3606   0.0000                                         
   Description                                                                  
     l       E           TYP  RCUT    TYP  RCUT                                 
     2    -11.7331479     23  2.300                                             
     2    -13.0937305     23  2.300                                             
     0     -5.6591502     23  2.300                                             
     0     -1.5561433     23  2.300                                             
     1     -2.7211652     23  2.300                                             
     1      8.3548275     23  2.300                                             
  local pseudopotential read in
  partial core-charges read in
  partial kinetic energy density read in
  atomic valenz-charges read in
  non local Contribution for L=           2  read in
    real space projection operators read in
  non local Contribution for L=           2  read in
    real space projection operators read in
  non local Contribution for L=           0  read in
    real space projection operators read in
  non local Contribution for L=           0  read in
    real space projection operators read in
  non local Contribution for L=           1  read in
    real space projection operators read in
  non local Contribution for L=           1  read in
    real space projection operators read in
    PAW grid and wavefunctions read in
 
   number of l-projection  operators is LMAX  =           6
   number of lm-projection operators is LMMAX =          18
 
 POTCAR:    PAW_PBE In_d 06Sep2000                
   VRHFIN =In: s2p1                                                             
   LEXCH  = PE                                                                  
   EATOM  =  1576.8302 eV,  115.8937 Ry                                         
                                                                                
   TITEL  = PAW_PBE In_d 06Sep2000                                              
   LULTRA =        F    use ultrasoft PP ?                                      
   IUNSCR =        1    unscreen: 0-lin 1-nonlin 2-no                           
   RPACOR =    2.200    partial core radius                                     
   POMASS =  114.820; ZVAL   =   13.000    mass and valenz                      
   RCORE  =    2.500    outmost cutoff radius                                   
   RWIGS  =    3.170; RWIGS  =    1.677    wigner-seitz radius (au A)           
   ENMAX  =  239.211; ENMIN  =  179.409 eV                                      
   ICORE  =        3    local potential                                         
   LCOR   =        T    correct aug charges                                     
   LPAW   =        T    paw PP                                                  
   EAUG   =  449.704                                                            
   DEXC   =    0.000                                                            
   RMAX   =    2.552    core radius for proj-oper                               
   RAUG   =    1.300    factor for augmentation sphere                          
   RDEP   =    2.630    radius for radial grids                                 
   RDEPT  =    2.033    core radius for aug-charge                              
                                                                                
   Atomic configuration                                                         
   12 entries                                                                   
     n  l   j            E        occ.                                          
     1  0  0.50    -27747.9169   2.0000                                         
     2  0  0.50     -4154.4438   2.0000                                         
     2  1  1.50     -3728.4305   6.0000                                         
     3  0  0.50      -788.3680   2.0000                                         
     3  1  1.50      -648.9215   6.0000                                         
     3  2  2.50      -432.5893  10.0000                                         
     4  0  0.50      -119.6363   2.0000                                         
     4  1  1.50       -78.1086   6.0000                                         
     4  2  2.50       -18.6227  10.0000                                         
     5  0  0.50        -8.2107   2.0000                                         
     5  1  0.50        -2.5185   1.0000                                         
     4  3  2.50        -2.7212   0.0000                                         
   Description                                                                  
     l       E           TYP  RCUT    TYP  RCUT                                 
     2    -18.6226981     23  2.500                                             
     2     -1.3605826     23  2.500                                             
     0     -8.2107305     23  2.500                                             
     0     -6.1485975     23  2.500                                             
     1     -2.5184867     23  2.500                                             
     1      3.2427302     23  2.500                                             
     3     -1.3605826      7  2.500                                             
  local pseudopotential read in
  partial core-charges read in
  partial kinetic energy density read in
  atomic valenz-charges read in
  non local Contribution for L=           2  read in
    real space projection operators read in
  non local Contribution for L=           2  read in
    real space projection operators read in
  non local Contribution for L=           0  read in
    real space projection operators read in
  non local Contribution for L=           0  read in
    real space projection operators read in
  non local Contribution for L=           1  read in
    real space projection operators read in
  non local Contribution for L=           1  read in
    real space projection operators read in
    PAW grid and wavefunctions read in
 
   number of l-projection  operators is LMAX  =           6
   number of lm-projection operators is LMMAX =          18
 
 POTCAR:    PAW_PBE S 06Sep2000                   
   VRHFIN =S : s2p4                                                             
   LEXCH  = PE                                                                  
   EATOM  =   276.8230 eV,   20.3459 Ry                                         
                                                                                
   TITEL  = PAW_PBE S 06Sep2000                                                 
   LULTRA =        F    use ultrasoft PP ?                                      
   IUNSCR =        1    unscreen: 0-lin 1-nonlin 2-no                           
   RPACOR =    1.500    partial core radius                                     
   POMASS =   32.066; ZVAL   =    6.000    mass and valenz                      
   RCORE  =    1.900    outmost cutoff radius                                   
   RWIGS  =    2.200; RWIGS  =    1.164    wigner-seitz radius (au A)           
   ENMAX  =  258.689; ENMIN  =  194.016 eV                                      
   ICORE  =        2    local potential                                         
   LCOR   =        T    correct aug charges                                     
   LPAW   =        T    paw PP                                                  
   EAUG   =  335.092                                                            
   DEXC   =    0.000                                                            
   RMAX   =    1.942    core radius for proj-oper                               
   RAUG   =    1.300    factor for augmentation sphere                          
   RDEP   =    1.954    radius for radial grids                                 
   RDEPT  =    1.744    core radius for aug-charge                              
                                                                                
   Atomic configuration                                                         
    6 entries                                                                   
     n  l   j            E        occ.                                          
     1  0  0.50     -2405.8406   2.0000                                         
     2  0  0.50      -211.7007   2.0000                                         
     2  1  1.50      -156.4958   6.0000                                         
     3  0  0.50       -17.2562   2.0000                                         
     3  1  0.50        -7.0085   4.0000                                         
     3  2  1.50        -6.8029   0.0000                                         
   Description                                                                  
     l       E           TYP  RCUT    TYP  RCUT                                 
     0    -17.2561641     23  1.900                                             
     0    -15.8743224     23  1.900                                             
     1     -7.0085400     23  1.900                                             
     1     -2.7779785     23  1.900                                             
     2     -6.8029130     23  1.900                                             
  local pseudopotential read in
  partial core-charges read in
  partial kinetic energy density read in
  atomic valenz-charges read in
  non local Contribution for L=           0  read in
    real space projection operators read in
  non local Contribution for L=           0  read in
    real space projection operators read in
  non local Contribution for L=           1  read in
    real space projection operators read in
  non local Contribution for L=           1  read in
    real space projection operators read in
    PAW grid and wavefunctions read in
 
   number of l-projection  operators is LMAX  =           4
   number of lm-projection operators is LMMAX =           8
 

 ----------------------------------------------------------------------------- 
|                                                                             |
|  ADVICE TO THIS USER RUNNING 'VASP/VAMP'   (HEAR YOUR MASTER'S VOICE ...):  |
|                                                                             |
|      You have a (more or less) 'large supercell' and for larger cells       |
|      it might be more efficient to use real space projection opertators     |
|      So try LREAL= Auto  in the INCAR   file.                               |
|      Mind: At the moment your POTCAR file does not contain real space       |
|       projectors, and has to be modified,  BUT if you                       |
|      want to do an extremely  accurate calculation you might also keep the  |
|      reciprocal projection scheme          (i.e. LREAL=.FALSE.)             |
|                                                                             |
 ----------------------------------------------------------------------------- 

  PAW_PBE Cd 06Sep2000                  :
 energy of atom  1       EATOM=-1293.1815
 kinetic energy error for atom=    0.0041 (will be added to EATOM!!)
  PAW_PBE In_d 06Sep2000                :
 energy of atom  2       EATOM=-1576.8302
 kinetic energy error for atom=    0.0011 (will be added to EATOM!!)
  PAW_PBE S 06Sep2000                   :
 energy of atom  3       EATOM= -276.8230
 kinetic energy error for atom=    0.0009 (will be added to EATOM!!)
 
 
 POSCAR: Cd In2 S4                               
  positions in direct lattice
  velocities in cartesian coordinates
 exchange correlation table for  LEXCH =        8
   RHO(1)=    0.500       N(1)  =     2000
   RHO(2)=  100.500       N(2)  =     4000
 


--------------------------------------------------------------------------------------------------------


 ion  position               nearest neighbor table
   1  0.003  0.003  0.003-  46 2.56  52 2.56  30 2.58  42 2.62
   2  0.003  0.503  0.503-  29 2.56  53 2.56  43 2.58  34 2.62
   3  0.435  0.434  0.934-  45 3.15  31 3.15  35 3.16  17 3.64  14 3.64  12 3.65
   4  0.503  0.003  0.503-  33 2.56  44 2.56  51 2.58  32 2.62
   5  0.745  0.249  0.749-  48 2.56  26 2.56  38 2.57  49 2.59
   6  0.249  0.249  0.245-  41 2.56  54 2.56  47 2.58  25 2.59
   7  0.249  0.745  0.749-  50 2.56  36 2.56  27 2.58  39 2.59
   8  0.751  0.751  0.251-  40 2.57  37 2.57  28 2.57  55 2.59
   9  0.628  0.628  0.629-  45 2.61  44 2.66  53 2.66  40 2.67  50 2.68  48 2.68  23 3.81  18 3.81
                            19 3.88  17 3.89  22 3.99  20 3.99
  10  0.378  0.868  0.127-  35 2.62  37 2.65  46 2.66  51 2.66  39 2.67  54 2.72  20 3.76  21 3.81
                            14 3.85  23 3.89  15 3.91  16 3.99
  11  0.877  0.127  0.377-  52 2.65  55 2.65  33 2.65  43 2.65  38 2.66  47 2.66  16 3.88  15 3.89
                            19 3.89  13 3.91  22 3.91  24 3.91
  12  0.113  0.379  0.879-  49 2.57  36 2.61  41 2.61  34 2.62  42 2.62   3 3.65  18 3.85  13 3.85
                            21 3.89  24 3.91
  13  0.868  0.378  0.127-  31 2.62  28 2.65  52 2.66  43 2.66  49 2.68  41 2.72  22 3.76  16 3.81
                            12 3.85  18 3.89  11 3.91  21 3.99
  14  0.379  0.114  0.879-  39 2.57  54 2.61  26 2.61  32 2.62  42 2.62   3 3.64  23 3.85  10 3.85
                            16 3.89  24 3.91
  15  0.127  0.877  0.377-  46 2.65  55 2.65  29 2.65  51 2.65  27 2.66  47 2.66  21 3.88  19 3.89
                            11 3.89  20 3.91  10 3.91  24 3.91
  16  0.628  0.129  0.128-  31 2.61  33 2.66  52 2.66  37 2.67  54 2.68  26 2.68  22 3.81  13 3.81
                            11 3.88  14 3.89  23 3.99  10 3.99
  17  0.379  0.379  0.614-  25 2.57  50 2.61  48 2.61  34 2.62  32 2.62   3 3.64  22 3.85  20 3.85
                             9 3.89  24 3.91
  18  0.868  0.627  0.878-  45 2.62  28 2.65  53 2.66  30 2.66  49 2.68  36 2.72  23 3.76   9 3.81
                            12 3.85  13 3.89  19 3.91  21 3.99
  19  0.877  0.877  0.627-  53 2.65  44 2.65  55 2.65  30 2.65  38 2.66  27 2.66   9 3.88  15 3.89
                            11 3.89  18 3.91  23 3.91  24 3.91
  20  0.378  0.627  0.368-  35 2.62  40 2.65  29 2.66  51 2.66  25 2.67  50 2.72  10 3.76  21 3.81
                            17 3.85  22 3.89  15 3.91   9 3.99
  21  0.129  0.628  0.128-  35 2.61  29 2.66  46 2.66  28 2.67  36 2.68  41 2.68  10 3.81  20 3.81
                            15 3.88  12 3.89  18 3.99  13 3.99
  22  0.627  0.378  0.368-  31 2.62  40 2.65  33 2.66  43 2.66  25 2.67  48 2.72  13 3.76  16 3.81
                            17 3.85  20 3.89  11 3.91   9 3.99
  23  0.627  0.868  0.878-  45 2.62  37 2.65  44 2.66  30 2.66  39 2.67  26 2.72  18 3.76   9 3.81
                            14 3.85  10 3.89  19 3.91  16 3.99
  24  0.128  0.128  0.628-  38 2.65  47 2.65  27 2.65  32 2.67  42 2.67  34 2.67  12 3.91  17 3.91
                            14 3.91  15 3.91  11 3.91  19 3.91
  25  0.385  0.385  0.380-  17 2.57   6 2.59  22 2.67  20 2.67
  26  0.615  0.114  0.886-   5 2.56  14 2.61  16 2.68  23 2.72
  27  0.118  0.888  0.618-   7 2.58  24 2.65  15 2.66  19 2.66
  28  0.888  0.617  0.117-   8 2.57  13 2.65  18 2.65  21 2.67
  29  0.137  0.637  0.369-   2 2.56  15 2.65  21 2.66  20 2.66
  30  0.869  0.869  0.867-   1 2.58  19 2.65  18 2.66  23 2.66
  31  0.631  0.366  0.131-  16 2.61  22 2.62  13 2.62   3 3.15
  32  0.370  0.143  0.643-  14 2.62  17 2.62   4 2.62  24 2.67
  33  0.637  0.137  0.369-   4 2.56  11 2.65  16 2.66  22 2.66
  34  0.143  0.370  0.643-  17 2.62  12 2.62   2 2.62  24 2.67
  35  0.366  0.631  0.131-  21 2.61  20 2.62  10 2.62   3 3.16
  36  0.114  0.615  0.886-   7 2.56  12 2.61  21 2.68  18 2.72
  37  0.617  0.888  0.117-   8 2.57  23 2.65  10 2.65  16 2.67
  38  0.888  0.118  0.618-   5 2.57  24 2.65  11 2.66  19 2.66
  39  0.385  0.880  0.885-  14 2.57   7 2.59  10 2.67  23 2.67
  40  0.617  0.617  0.388-   8 2.57  22 2.65  20 2.65   9 2.67
  41  0.114  0.386  0.115-   6 2.56  12 2.61  21 2.68  13 2.72
  42  0.143  0.143  0.870-  14 2.62   1 2.62  12 2.62  24 2.67
  43  0.869  0.367  0.369-   2 2.58  11 2.65  13 2.66  22 2.66
  44  0.637  0.869  0.637-   4 2.56  19 2.65   9 2.66  23 2.66
  45  0.631  0.631  0.866-   9 2.61  23 2.62  18 2.62   3 3.15
  46  0.137  0.869  0.137-   1 2.56  15 2.65  21 2.66  10 2.66
  47  0.118  0.118  0.388-   6 2.58  24 2.65  11 2.66  15 2.66
  48  0.615  0.386  0.614-   5 2.56  17 2.61   9 2.68  22 2.72
  49  0.880  0.385  0.885-  12 2.57   5 2.59  18 2.68  13 2.68
  50  0.386  0.615  0.614-   7 2.56  17 2.61   9 2.68  20 2.72
  51  0.367  0.869  0.369-   4 2.58  15 2.65  20 2.66  10 2.66
  52  0.869  0.137  0.137-   1 2.56  11 2.65  16 2.66  13 2.66
  53  0.869  0.637  0.637-   2 2.56  19 2.65   9 2.66  18 2.66
  54  0.386  0.114  0.115-   6 2.56  14 2.61  16 2.68  10 2.72
  55  0.887  0.887  0.387-   8 2.59  11 2.65  15 2.65  19 2.65
 

IMPORTANT INFORMATION: All symmetrisations will be switched off!
NOSYMM: (Re-)initialisation of all symmetry stuff for point group C_1.

 
 
 KPOINTS: Automatic mesh                          

Automatic generation of k-mesh.
Space group operators:
 irot       det(A)        alpha          n_x          n_y          n_z        tau_x        tau_y        tau_z
    1     1.000000     0.000001     1.000000     0.000000     0.000000     0.000000     0.000000     0.000000
 
 Subroutine IBZKPT returns following result:
 ===========================================
 
 Found     14 irreducible k-points:
 
 Following reciprocal coordinates:
            Coordinates               Weight
  0.000000  0.000000  0.000000      1.000000
  0.333333  0.000000  0.000000      2.000000
  0.000000  0.333333  0.000000      2.000000
  0.333333  0.333333  0.000000      2.000000
 -0.333333  0.333333  0.000000      2.000000
  0.000000  0.000000  0.333333      2.000000
  0.333333  0.000000  0.333333      2.000000
 -0.333333  0.000000  0.333333      2.000000
  0.000000  0.333333  0.333333      2.000000
  0.333333  0.333333  0.333333      2.000000
 -0.333333  0.333333  0.333333      2.000000
  0.000000 -0.333333  0.333333      2.000000
  0.333333 -0.333333  0.333333      2.000000
 -0.333333 -0.333333  0.333333      2.000000
 
 Following cartesian coordinates:
            Coordinates               Weight
  0.000000  0.000000  0.000000      1.000000
  0.030242  0.000000  0.000000      2.000000
  0.000000  0.030242  0.000000      2.000000
  0.030242  0.030242  0.000000      2.000000
 -0.030242  0.030242  0.000000      2.000000
  0.000000  0.000000  0.030242      2.000000
  0.030242  0.000000  0.030242      2.000000
 -0.030242  0.000000  0.030242      2.000000
  0.000000  0.030242  0.030242      2.000000
  0.030242  0.030242  0.030242      2.000000
 -0.030242  0.030242  0.030242      2.000000
  0.000000 -0.030242  0.030242      2.000000
  0.030242 -0.030242  0.030242      2.000000
 -0.030242 -0.030242  0.030242      2.000000
 
 TETIRR: Found     78 inequivalent tetrahedra from      162


--------------------------------------------------------------------------------------------------------




 Dimension of arrays:
   k-points           NKPTS =     14   k-points in BZ     NKDIM =     14   number of bands    NBANDS=    296
   number of dos      NEDOS =   1601   number of ions     NIONS =     55
   non local maximal  LDIM  =      6   non local SUM 2l+1 LMDIM =     18
   total plane-waves  NPLWV = 729000
   max r-space proj   IRMAX =      1   max aug-charges    IRDMAX=  23711
   dimension x,y,z NGX =    90 NGY =   90 NGZ =   90
   dimension x,y,z NGXF=   180 NGYF=  180 NGZF=  180
   support grid    NGXF=   180 NGYF=  180 NGZF=  180
   ions per type =               8  16  31
 NGX,Y,Z   is equivalent  to a cutoff of  13.57, 13.57, 13.57 a.u.
 NGXF,Y,Z  is equivalent  to a cutoff of  27.15, 27.15, 27.15 a.u.


 I would recommend the setting:
   dimension x,y,z NGX =    88 NGY =   88 NGZ =   88
 SYSTEM =  CdIn2S4                                 
 POSCAR =  Cd In2 S4                               

 Startparameter for this run:
   NWRITE =      2    write-flag & timer
   PREC   = accura    normal or accurate (medium, high low for compatibility)
   ISTART =      0    job   : 0-new  1-cont  2-samecut
   ICHARG =      2    charge: 1-file 2-atom 10-const
   ISPIN  =      1    spin polarized calculation?
   LNONCOLLINEAR =      F non collinear calculations
   LSORBIT =      F    spin-orbit coupling
   INIWAV =      1    electr: 0-lowe 1-rand  2-diag
   LASPH  =      F    aspherical Exc in radial PAW
   METAGGA=      F    non-selfconsistent MetaGGA calc.

 Electronic Relaxation 1
   ENCUT  =  600.0 eV  44.10 Ry    6.64 a.u.  22.01 22.01 22.01*2*pi/ulx,y,z
   ENINI  =  600.0     initial cutoff
   ENAUG  =  456.1 eV  augmentation charge cutoff
   NELM   =     60;   NELMIN=  2; NELMDL= -5     # of ELM steps 
   EDIFF  = 0.1E-04   stopping-criterion for ELM
   LREAL  =      F    real-space projection
   NLSPLINE    = F    spline interpolate recip. space projectors
   LCOMPAT=      F    compatible to vasp.4.4
   GGA_COMPAT  = T    GGA compatible to vasp.4.4-vasp.4.6
   LMAXPAW     = -100 max onsite density
   LMAXMIX     =    2 max onsite mixed and CHGCAR
   VOSKOWN=      0    Vosko Wilk Nusair interpolation
   ROPT   =    0.00000   0.00000   0.00000
 Ionic relaxation
   EDIFFG = -.1E-02   stopping-criterion for IOM
   NSW    =      0    number of steps for IOM
   NBLOCK =      1;   KBLOCK =      1    inner block; outer block 
   IBRION =     -1    ionic relax: 0-MD 1-quasi-New 2-CG
   NFREE  =      1    steps in history (QN), initial steepest desc. (CG)
   ISIF   =      0    stress and relaxation
   IWAVPR =     10    prediction:  0-non 1-charg 2-wave 3-comb
   ISYM   =      0    0-nonsym 1-usesym 2-fastsym
   LCORR  =      T    Harris-Foulkes like correction to forces

   POTIM  = 0.5000    time-step for ionic-motion
   TEIN   =    0.0    initial temperature
   TEBEG  =    0.0;   TEEND  =   0.0 temperature during run
   SMASS  =  -3.00    Nose mass-parameter (am)
   estimated Nose-frequenzy (Omega)   =  0.10E-29 period in steps =****** mass=  -0.278E-26a.u.
   SCALEE = 1.0000    scale energy and forces
   NPACO  =    256;   APACO  = 16.0  distance and # of slots for P.C.
   PSTRESS=    0.0 pullay stress

  Mass of Ions in am
   POMASS = 112.41114.82 32.07
  Ionic Valenz
   ZVAL   =  12.00 13.00  6.00
  Atomic Wigner-Seitz radii
   RWIGS  =  -1.00 -1.00 -1.00
  virtual crystal weights 
   VCA    =   1.00  1.00  1.00
   NELECT =     490.0000    total number of electrons
   NUPDOWN=      -1.0000    fix difference up-down

 DOS related values:
   EMIN   =  -5.00;   EMAX   = 10.00  energy-range for DOS
   EFERMI =   0.00
   ISMEAR =    -4;   SIGMA  =   0.20  broadening in eV -4-tet -1-fermi 0-gaus

 Electronic relaxation 2 (details)
   IALGO  =     38    algorithm
   LDIAG  =      T    sub-space diagonalisation (order eigenvalues)
   LSUBROT=      F    optimize rotation matrix (better conditioning)
   TURBO    =      0    0=normal 1=particle mesh
   IRESTART =      0    0=no restart 2=restart with 2 vectors
   NREBOOT  =      0    no. of reboots
   NMIN     =      0    reboot dimension
   EREF     =   0.00    reference energy to select bands
   IMIX   =      4    mixing-type and parameters
     AMIX     =   0.40;   BMIX     =  1.00
     AMIX_MAG =   1.60;   BMIX_MAG =  1.00
     AMIN     =   0.10
     WC   =   100.;   INIMIX=   1;  MIXPRE=   1;  MAXMIX= -45

 Intra band minimization:
   WEIMIN = 0.0000     energy-eigenvalue tresh-hold
   EBREAK =  0.84E-08  absolut break condition
   DEPER  =   0.30     relativ break condition  

   TIME   =   0.40     timestep for ELM

  volume/ion in A,a.u.               =      24.35       164.31
  Fermi-wavevector in a.u.,A,eV,Ry     =   1.170934  2.212745 18.654772  1.371087
  Thomas-Fermi vector in A             =   2.307385
 
 Write flags
   LWAVE  =      T    write WAVECAR
   LCHARG =      T    write CHGCAR
   LVTOT  =      F    write LOCPOT, total local potential
   LVHAR  =      F    write LOCPOT, Hartree potential only
   LELF   =      F    write electronic localiz. function (ELF)
   LORBIT =     11    0 simple, 1 ext, 2 COOP (PROOUT)


 Dipole corrections
   LMONO  =      F    monopole corrections only (constant potential shift)
   LDIPOL =      F    correct potential (dipole corrections)
   IDIPOL =      0    1-x, 2-y, 3-z, 4-all directions 
   EPSILON=  1.0000000 bulk dielectric constant

 Exchange correlation treatment:
   GGA     =    --    GGA type
   LEXCH   =     8    internal setting for exchange type
   VOSKOWN=      0    Vosko Wilk Nusair interpolation
   LHFCALC =     F    Hartree Fock is set to
   LHFONE  =     F    Hartree Fock one center treatment
   AEXX    =    0.0000 exact exchange contribution

 Linear response parameters
   LEPSILON=     F    determine dielectric tensor
   LRPA    =     F    only Hartree local field effects (RPA)
   LNABLA  =     F    use nabla operator in PAW spheres
   LVEL    =     F    velocity operator in full k-point grid
   LINTERFAST=   F  fast interpolation
   KINTER  =     0    interpolate to denser k-point grid
   CSHIFT  =0.1000    complex shift for real part using Kramers Kronig
   OMEGAMAX=  -1.0    maximum frequency
   DEG_THRESHOLD= 0.2000000E-02 threshold for treating states as degnerate
   RTIME   =    0.100 relaxation time in fs

 Orbital magnetization related:
   ORBITALMAG=     F  switch on orbital magnetization
   LCHIMAG   =     F  perturbation theory with respect to B field
   DQ        =  0.001000  dq finite difference perturbation B field



--------------------------------------------------------------------------------------------------------


 Static calculation
 charge density and potential will be updated during run
 non-spin polarized calculation
 Variant of blocked Davidson
 Davidson routine will perform the subspace rotation
 perform sub-space diagonalisation
    after iterative eigenvector-optimisation
 modified Broyden-mixing scheme, WC =      100.0
 initial mixing is a Kerker type mixing with AMIX =  0.4000 and BMIX =      1.0000
 Hartree-type preconditioning will be used
 using additional bands           51
 reciprocal scheme for non local part
 use partial core corrections
 calculate Harris-corrections to forces 
   (improved forces if not selfconsistent)
 use gradient corrections 
 use of overlap-Matrix (Vanderbilt PP)
 Fermi weights with tetrahedron method witout Bloechl corrections


--------------------------------------------------------------------------------------------------------


  energy-cutoff  :      600.00
  volume of cell :     1339.13
      direct lattice vectors                 reciprocal lattice vectors
    11.022353692  0.000000000  0.000000000     0.090724724  0.000000000  0.000000000
     0.000000000 11.022353692  0.000000000     0.000000000  0.090724724  0.000000000
     0.000000000  0.000000000 11.022353692     0.000000000  0.000000000  0.090724724

  length of vectors
    11.022353692 11.022353692 11.022353692     0.090724724  0.090724724  0.090724724


 
 k-points in units of 2pi/SCALE and weight: Automatic mesh                          
   0.00000000  0.00000000  0.00000000       0.037
   0.03024157  0.00000000  0.00000000       0.074
   0.00000000  0.03024157  0.00000000       0.074
   0.03024157  0.03024157  0.00000000       0.074
  -0.03024157  0.03024157  0.00000000       0.074
   0.00000000  0.00000000  0.03024157       0.074
   0.03024157  0.00000000  0.03024157       0.074
  -0.03024157  0.00000000  0.03024157       0.074
   0.00000000  0.03024157  0.03024157       0.074
   0.03024157  0.03024157  0.03024157       0.074
  -0.03024157  0.03024157  0.03024157       0.074
   0.00000000 -0.03024157  0.03024157       0.074
   0.03024157 -0.03024157  0.03024157       0.074
  -0.03024157 -0.03024157  0.03024157       0.074
 
 k-points in reciprocal lattice and weights: Automatic mesh                          
   0.00000000  0.00000000  0.00000000       0.037
   0.33333333  0.00000000  0.00000000       0.074
   0.00000000  0.33333333  0.00000000       0.074
   0.33333333  0.33333333  0.00000000       0.074
  -0.33333333  0.33333333  0.00000000       0.074
   0.00000000  0.00000000  0.33333333       0.074
   0.33333333  0.00000000  0.33333333       0.074
  -0.33333333  0.00000000  0.33333333       0.074
   0.00000000  0.33333333  0.33333333       0.074
   0.33333333  0.33333333  0.33333333       0.074
  -0.33333333  0.33333333  0.33333333       0.074
   0.00000000 -0.33333333  0.33333333       0.074
   0.33333333 -0.33333333  0.33333333       0.074
  -0.33333333 -0.33333333  0.33333333       0.074
 
 position of ions in fractional coordinates (direct lattice) 
   0.00308417  0.00303723  0.00304767 Cd1
   0.00303601  0.50306735  0.50301985 Cd2
   0.43487297  0.43419274  0.93416710 Cd3
   0.50298903  0.00301822  0.50300512
   0.74549111  0.24892444  0.74888780 Cd5
   0.24906897  0.24908892  0.24547602
   0.24911000  0.74544250  0.74910788
   0.75081120  0.75081184  0.25081184 Cd8
   0.62805297  0.62806845  0.62948183 In1
   0.37768820  0.86802182  0.12710994
   0.87725190  0.12681354  0.37719592
   0.11284743  0.37855735  0.87855277 In
   0.86804485  0.37769182  0.12719833 In5
   0.37861876  0.11361413  0.87860365
   0.12679768  0.87720850  0.37726975
   0.62805365  0.12948566  0.12806480
   0.37859743  0.37860731  0.61360520 In
   0.86804373  0.62720160  0.87768896 In10
   0.87721328  0.87721487  0.62683220
   0.37768751  0.62711229  0.36801423
   0.12948747  0.62806890  0.12805875
   0.62708766  0.37770001  0.36803697
   0.62708964  0.86803891  0.87769804 In15
   0.12818039  0.12813912  0.62815181 S1
   0.38494006  0.38496539  0.38017734
   0.61501882  0.11404038  0.88612688
   0.11824837  0.88810445  0.61825344
   0.88759105  0.61693998  0.11694033 S5
   0.13661548  0.63705070  0.36866538
   0.86854242  0.86860057  0.86723311
   0.63106901  0.36637051  0.13106696
   0.36987773  0.14254843  0.64254881
   0.63708369  0.13662614  0.36869358 S10
   0.14254676  0.36988018  0.64254930
   0.36634731  0.63106472  0.13106470
   0.11405339  0.61495523  0.88615234
   0.61694095  0.88759208  0.11694016
   0.88829321  0.11820667  0.61817776 S15
   0.38493990  0.88018113  0.88496775
   0.61694067  0.61694384  0.38759247
   0.11405383  0.38615199  0.11495541
   0.14254651  0.14255018  0.86987908
   0.86854122  0.36722683  0.36860481 S20
   0.63706515  0.86867905  0.63662028
   0.63106790  0.63106822  0.86636874
   0.13663649  0.86869347  0.13712711
   0.11824819  0.11825127  0.38818941
   0.61495760  0.38615219  0.61405375 ####
   0.87993409  0.38487240  0.88485267 S25
   0.38615292  0.61495676  0.61405360
   0.36719769  0.86855047  0.36855131
   0.86869205  0.13662720  0.13708260
   0.86868533  0.63709598  0.63662959
   0.38614785  0.11408640  0.11495395 S30
   0.88666598  0.88668731  0.38668863 S31
 
 position of ions in cartesian coordinates  (Angst):
   0.03399480  0.03347739  0.03359247
   0.03346393  5.54498629  5.54446267
   4.79332363  4.78582593 10.29672017
   5.54412294  0.03326784  5.54430038
   8.21706665  2.74373319  8.25450623
   2.74532633  2.74554618  2.70572347
   2.74577852  8.21653091  8.25693201
   8.27570664  8.27571362  2.76453683
   6.92262192  6.92279264  6.93837135
   4.16301295  9.56764351  1.40105068
   9.66938075  1.39778370  4.15758681
   1.24384431  4.17259303  9.68371933
   9.56789737  4.16305281  1.40202498
   4.17326984  1.25229514  9.68428021
   1.39760893  9.66890236  4.15840067
   6.92262943  1.42723670  1.41157547
   4.17303482  4.17314373  6.76337350
   9.56788500  6.91323790  9.67419810
   9.66895500  9.66897255  6.90916619
   4.16300536  6.91225344  4.05638300
   1.42725664  6.92279757  1.41150883
   6.91198200  4.16314313  4.05663364
   6.91200385  9.56783189  9.67429822
   1.41284961  1.41239466  6.92371138
   4.24294552  4.24322474  4.19044911
   6.77895494  1.25699343  9.76720391
   1.30337533  9.78900132  6.81460814
   9.78334250  6.80013061  1.28895766
   1.50582410  7.02179815  4.06356024
   9.57338176  9.57402272  9.55895005
   6.95586585  4.03826537  1.44466638
   4.07692315  1.57121924  7.08240026
   7.02216179  1.50594167  4.06387102
   1.57120076  4.07695021  7.08240565
   4.03800963  6.95581850  1.44464151
   1.25713678  6.77825407  9.76748454
   6.80014140  9.78335382  1.28895585
   9.79108195  1.30291576  6.81377392
   4.24294368  9.70166773  9.75442759
   6.80013829  6.80017319  4.27218132
   1.25714164  4.25630378  1.26707918
   1.57119810  1.57123854  9.58811485
   9.57336852  4.04770403  4.06289262
   7.02195737  9.57488773  7.01705388
   6.95585363  6.95585715  9.54942270
   1.50605570  9.57504664  1.51146351
   1.30337336  1.30340728  4.27876099
   6.77828019  4.25630600  6.76831759
   9.69894477  4.24219967  9.75315914
   4.25631411  6.77827096  6.76831600
   4.04738285  9.57347043  4.06230284
   9.57503105  1.50595330  1.51097286
   9.57495697  7.02229720  7.01715653
   4.25625819  1.25750063  1.26706311
   9.77314605  9.77338115  4.26221880
 


--------------------------------------------------------------------------------------------------------


 k-point  1 :   0.0000 0.0000 0.0000  plane waves:   44473
 k-point  2 :   0.3333 0.0000 0.0000  plane waves:   44660
 k-point  3 :   0.0000 0.3333 0.0000  plane waves:   44660
 k-point  4 :   0.3333 0.3333 0.0000  plane waves:   44717
 k-point  5 :  -0.3333 0.3333 0.0000  plane waves:   44717
 k-point  6 :   0.0000 0.0000 0.3333  plane waves:   44660
 k-point  7 :   0.3333 0.0000 0.3333  plane waves:   44717
 k-point  8 :  -0.3333 0.0000 0.3333  plane waves:   44717
 k-point  9 :   0.0000 0.3333 0.3333  plane waves:   44717
 k-point 10 :   0.3333 0.3333 0.3333  plane waves:   44681
 k-point 11 :  -0.3333 0.3333 0.3333  plane waves:   44681
 k-point 12 :   0.0000-0.3333 0.3333  plane waves:   44717
 k-point 13 :   0.3333-0.3333 0.3333  plane waves:   44681
 k-point 14 :  -0.3333-0.3333 0.3333  plane waves:   44681

 maximum and minimum number of plane-waves per node :     22426    22216

 maximum number of plane-waves:     44717
 maximum index in each direction: 
   IXMAX=   22   IYMAX=   22   IZMAX=   22
   IXMIN=  -22   IYMIN=  -22   IZMIN=  -22

 NGX is ok and might be reduce to  90
 NGY is ok and might be reduce to  90
 NGZ is ok and might be reduce to  90

 parallel 3D FFT for wavefunctions:
    minimum data exchange during FFTs selected (reduces bandwidth)
 parallel 3D FFT for charge:
    minimum data exchange during FFTs selected (reduces bandwidth)


 total amount of memory used by VASP on root node   660661. kBytes
========================================================================

   base      :      30000. kBytes
   nonl-proj :     154993. kBytes
   fftplans  :      35958. kBytes
   grid      :      62735. kBytes
   one-center:        435. kBytes
   wavefun   :     376540. kBytes
 
     INWAV:  cpu time    0.00: real time    0.00
 Broyden mixing: mesh for mixing (old mesh)
   NGX = 45   NGY = 45   NGZ = 45
  (NGX  =180   NGY  =180   NGZ  =180)
  gives a total of  91125 points

 initial charge density was supplied:
 charge density of overlapping atoms calculated
 number of electron     490.0000000 magnetization 
 keeping initial charge density in first step


--------------------------------------------------------------------------------------------------------


 Maximum index for augmentation-charges         3313 (set IRDMAX)


--------------------------------------------------------------------------------------------------------


 First call to EWALD:  gamma=   0.161
 Maximum number of real-space cells 3x 3x 3
 Maximum number of reciprocal cells 3x 3x 3

 FEWALD executed in parallel
    FEWALD:  cpu time    0.01: real time    0.01


----------------------------------------- Iteration    1(   1)  ---------------------------------------


    POTLOK:  cpu time    1.50: real time    1.50
    SETDIJ:  cpu time    0.07: real time    0.07
     EDDAV:  cpu time  755.53: real time  759.29
 BZINTS: Fermi energy: 32.166172;490.000000 electrons
         Band energy:4318.650306;  BLOECHL correction:  0.000000
       DOS:  cpu time    4.83: real time    4.83
    --------------------------------------------
      LOOP:  cpu time  761.93: real time  765.69

 eigenvalue-minimisations  :  8288
 total energy-change (2. order) : 0.6310275E+04  (-0.2213217E+05)
 number of electron     490.0000000 magnetization 
 augmentation part      490.0000000 magnetization 

 Free energy of the ion-electron system (eV)
  ---------------------------------------------------
  alpha Z        PSCENC =      1241.77088299
  Ewald energy   TEWEN  =    -31464.54371708
  -Hartree energ DENC   =    -13549.17989196
  -exchange      EXHF   =         0.00000000
  -V(xc)+E(xc)   XCENC  =      1089.34284726
  PAW double counting   =     38410.54010082   -37892.47695797
  entropy T*S    EENTRO =         0.00000000
  eigenvalues    EBANDS =      4318.65030630
  atomic energy  EATOM  =     44156.17162135
  ---------------------------------------------------
  free energy    TOTEN  =      6310.27519172 eV

  energy without entropy =     6310.27519172  energy(sigma->0) =     6310.27519172


--------------------------------------------------------------------------------------------------------




----------------------------------------- Iteration    1(   2)  ---------------------------------------


     EDDAV:  cpu time  759.73: real time  761.58
 BZINTS: Fermi energy: 12.085564;490.000000 electrons
         Band energy:-909.261827;  BLOECHL correction:  0.000000
       DOS:  cpu time    0.54: real time    0.54
    --------------------------------------------
      LOOP:  cpu time  760.27: real time  762.18

 eigenvalue-minimisations  :  8288
 total energy-change (2. order) :-0.5227912E+04  (-0.5085946E+04)
 number of electron     490.0000000 magnetization 
 augmentation part      490.0000000 magnetization 

 Free energy of the ion-electron system (eV)
  ---------------------------------------------------
  alpha Z        PSCENC =      1241.77088299
  Ewald energy   TEWEN  =    -31464.54371708
  -Hartree energ DENC   =    -13549.17989196
  -exchange      EXHF   =         0.00000000
  -V(xc)+E(xc)   XCENC  =      1089.34284726
  PAW double counting   =     38410.54010082   -37892.47695797
  entropy T*S    EENTRO =         0.00000000
  eigenvalues    EBANDS =      -909.26182735
  atomic energy  EATOM  =     44156.17162135
  ---------------------------------------------------
  free energy    TOTEN  =      1082.36305807 eV

  energy without entropy =     1082.36305807  energy(sigma->0) =     1082.36305807


--------------------------------------------------------------------------------------------------------




----------------------------------------- Iteration    1(   3)  ---------------------------------------


     EDDAV:  cpu time  935.85: real time  939.38
 BZINTS: Fermi energy:  4.759448;490.000000 electrons
         Band energy:***********;  BLOECHL correction:  0.000000
       DOS:  cpu time    0.03: real time    0.03
    --------------------------------------------
      LOOP:  cpu time  935.90: real time  939.52

 eigenvalue-minimisations  :  9136
 total energy-change (2. order) :-0.1150388E+04  (-0.1074054E+04)
 number of electron     490.0000000 magnetization 
 augmentation part      490.0000000 magnetization 

 Free energy of the ion-electron system (eV)
  ---------------------------------------------------
  alpha Z        PSCENC =      1241.77088299
  Ewald energy   TEWEN  =    -31464.54371708
  -Hartree energ DENC   =    -13549.17989196
  -exchange      EXHF   =         0.00000000
  -V(xc)+E(xc)   XCENC  =      1089.34284726
  PAW double counting   =     38410.54010082   -37892.47695797
  entropy T*S    EENTRO =         0.00000000
  eigenvalues    EBANDS =     -2059.64982163
  atomic energy  EATOM  =     44156.17162135
  ---------------------------------------------------
  free energy    TOTEN  =       -68.02493620 eV

  energy without entropy =      -68.02493620  energy(sigma->0) =      -68.02493620


--------------------------------------------------------------------------------------------------------




----------------------------------------- Iteration    1(   4)  ---------------------------------------


     EDDAV:  cpu time 1042.47: real time 1046.19
 BZINTS: Fermi energy:  3.888672;490.000000 electrons
         Band energy:***********;  BLOECHL correction:  0.000000
       DOS:  cpu time    0.02: real time    0.03
    --------------------------------------------
      LOOP:  cpu time 1042.51: real time 1046.23

 eigenvalue-minimisations  : 10856
 total energy-change (2. order) :-0.1466439E+03  (-0.1436217E+03)
 number of electron     490.0000000 magnetization 
 augmentation part      490.0000000 magnetization 

 Free energy of the ion-electron system (eV)
  ---------------------------------------------------
  alpha Z        PSCENC =      1241.77088299
  Ewald energy   TEWEN  =    -31464.54371708
  -Hartree energ DENC   =    -13549.17989196
  -exchange      EXHF   =         0.00000000
  -V(xc)+E(xc)   XCENC  =      1089.34284726
  PAW double counting   =     38410.54010082   -37892.47695797
  entropy T*S    EENTRO =         0.00000000
  eigenvalues    EBANDS =     -2206.29373996
  atomic energy  EATOM  =     44156.17162135
  ---------------------------------------------------
  free energy    TOTEN  =      -214.66885454 eV

  energy without entropy =     -214.66885454  energy(sigma->0) =     -214.66885454


--------------------------------------------------------------------------------------------------------




----------------------------------------- Iteration    1(   5)  ---------------------------------------


     EDDAV:  cpu time 1048.53: real time 1052.78
 BZINTS: Fermi energy:  3.833594;490.000000 electrons
         Band energy:***********;  BLOECHL correction:  0.000000
       DOS:  cpu time    0.02: real time    0.02
    CHARGE:  cpu time   20.72: real time   20.72
    MIXING:  cpu time    0.05: real time    0.05
    --------------------------------------------
      LOOP:  cpu time 1069.34: real time 1073.61

 eigenvalue-minimisations  : 10040
 total energy-change (2. order) :-0.5435404E+01  (-0.5373747E+01)
 number of electron     489.9999913 magnetization 
 augmentation part      132.8990055 magnetization 

 Broyden mixing:
  rms(total) = 0.39115E+01    rms(broyden)= 0.39115E+01
  rms(prec ) = 0.42800E+01
  weight for this iteration     100.00

 Free energy of the ion-electron system (eV)
  ---------------------------------------------------
  alpha Z        PSCENC =      1241.77088299
  Ewald energy   TEWEN  =    -31464.54371708
  -Hartree energ DENC   =    -13549.17989196
  -exchange      EXHF   =         0.00000000
  -V(xc)+E(xc)   XCENC  =      1089.34284726
  PAW double counting   =     38410.54010082   -37892.47695797
  entropy T*S    EENTRO =         0.00000000
  eigenvalues    EBANDS =     -2211.72914373
  atomic energy  EATOM  =     44156.17162135
  ---------------------------------------------------
  free energy    TOTEN  =      -220.10425831 eV

  energy without entropy =     -220.10425831  energy(sigma->0) =     -220.10425831


--------------------------------------------------------------------------------------------------------




----------------------------------------- Iteration    1(   6)  ---------------------------------------


    POTLOK:  cpu time    1.49: real time    1.49
    SETDIJ:  cpu time    0.08: real time    0.08
     EDDAV:  cpu time 1000.17: real time 1002.65
 BZINTS: Fermi energy:  3.760937;490.000000 electrons
         Band energy:***********;  BLOECHL correction:  0.000000
       DOS:  cpu time    0.02: real time    0.02
    CHARGE:  cpu time   19.79: real time   19.84
    MIXING:  cpu time    0.05: real time    0.05
    --------------------------------------------
      LOOP:  cpu time 1021.59: real time 1024.14

 eigenvalue-minimisations  : 10840
 total energy-change (2. order) : 0.1402126E+02  (-0.2452549E+01)
 number of electron     489.9999913 magnetization 
 augmentation part      134.1080423 magnetization 

 Broyden mixing:
  rms(total) = 0.24854E+01    rms(broyden)= 0.24854E+01
  rms(prec ) = 0.25712E+01
  weight for this iteration     100.00

 eigenvalues of (default mixing * dielectric matrix)
  average eigenvalue GAMMA=   1.7423
  1.7423

 Free energy of the ion-electron system (eV)
  ---------------------------------------------------
  alpha Z        PSCENC =      1241.77088299
  Ewald energy   TEWEN  =    -31464.54371708
  -Hartree energ DENC   =    -13484.49586529
  -exchange      EXHF   =         0.00000000
  -V(xc)+E(xc)   XCENC  =      1094.07167535
  PAW double counting   =     46584.83272608   -46036.73173507
  entropy T*S    EENTRO =         0.00000000
  eigenvalues    EBANDS =     -2297.15858666
  atomic energy  EATOM  =     44156.17162135
  ---------------------------------------------------
  free energy    TOTEN  =      -206.08299833 eV

  energy without entropy =     -206.08299833  energy(sigma->0) =     -206.08299833


--------------------------------------------------------------------------------------------------------




----------------------------------------- Iteration    1(   7)  ---------------------------------------


    POTLOK:  cpu time    1.36: real time    1.36
    SETDIJ:  cpu time    0.08: real time    0.08
     EDDAV:  cpu time 1166.95: real time 1171.05
 BZINTS: Fermi energy:  3.789062;490.000000 electrons
         Band energy:***********;  BLOECHL correction:  0.000000
       DOS:  cpu time    0.02: real time    0.02
    CHARGE:  cpu time   19.73: real time   19.90
    MIXING:  cpu time    0.06: real time    0.06
    --------------------------------------------
      LOOP:  cpu time 1188.19: real time 1192.56

 eigenvalue-minimisations  : 10968
 total energy-change (2. order) : 0.1103630E+00  (-0.2067680E+01)
 number of electron     489.9999914 magnetization 
 augmentation part      134.9970608 magnetization 

 Broyden mixing:
  rms(total) = 0.93539E+00    rms(broyden)= 0.93539E+00
  rms(prec ) = 0.97696E+00
  weight for this iteration     100.00

 eigenvalues of (default mixing * dielectric matrix)
  average eigenvalue GAMMA=   1.6587
  1.3019  2.0155

 Free energy of the ion-electron system (eV)
  ---------------------------------------------------
  alpha Z        PSCENC =      1241.77088299
  Ewald energy   TEWEN  =    -31464.54371708
  -Hartree energ DENC   =    -13486.41501511
  -exchange      EXHF   =         0.00000000
  -V(xc)+E(xc)   XCENC  =      1098.79906297
  PAW double counting   =     55720.44694082   -55163.81796601
  entropy T*S    EENTRO =         0.00000000
  eigenvalues    EBANDS =     -2308.38444529
  atomic energy  EATOM  =     44156.17162135
  ---------------------------------------------------
  free energy    TOTEN  =      -205.97263536 eV

  energy without entropy =     -205.97263536  energy(sigma->0) =     -205.97263536


--------------------------------------------------------------------------------------------------------




----------------------------------------- Iteration    1(   8)  ---------------------------------------


    POTLOK:  cpu time    1.43: real time    1.43
    SETDIJ:  cpu time    0.07: real time    0.07
     EDDAV:  cpu time  965.96: real time  968.71
 BZINTS: Fermi energy:  3.751562;490.000000 electrons
         Band energy:***********;  BLOECHL correction:  0.000000
       DOS:  cpu time    0.02: real time    0.02
    CHARGE:  cpu time   19.15: real time   19.28
    MIXING:  cpu time    0.06: real time    0.06
    --------------------------------------------
      LOOP:  cpu time  986.70: real time  989.60

 eigenvalue-minimisations  : 10912
 total energy-change (2. order) : 0.1180694E+00  (-0.3368162E+00)
 number of electron     489.9999914 magnetization 
 augmentation part      134.5190115 magnetization 

 Broyden mixing:
  rms(total) = 0.40955E+00    rms(broyden)= 0.40955E+00
  rms(prec ) = 0.42284E+00
  weight for this iteration     100.00

 eigenvalues of (default mixing * dielectric matrix)
  average eigenvalue GAMMA=   1.3921
  2.1363  0.9570  1.0829

 Free energy of the ion-electron system (eV)
  ---------------------------------------------------
  alpha Z        PSCENC =      1241.77088299
  Ewald energy   TEWEN  =    -31464.54371708
  -Hartree energ DENC   =    -13506.68116070
  -exchange      EXHF   =         0.00000000
  -V(xc)+E(xc)   XCENC  =      1098.97428924
  PAW double counting   =     58904.54505369   -58354.84273687
  entropy T*S    EENTRO =         0.00000000
  eigenvalues    EBANDS =     -2281.24879857
  atomic energy  EATOM  =     44156.17162135
  ---------------------------------------------------
  free energy    TOTEN  =      -205.85456594 eV

  energy without entropy =     -205.85456594  energy(sigma->0) =     -205.85456594


--------------------------------------------------------------------------------------------------------




----------------------------------------- Iteration    1(   9)  ---------------------------------------


    POTLOK:  cpu time    1.48: real time    1.48
    SETDIJ:  cpu time    0.08: real time    0.08
     EDDAV:  cpu time 1055.17: real time 1059.40
 BZINTS: Fermi energy:  3.758594;490.000000 electrons
         Band energy:***********;  BLOECHL correction:  0.000000
       DOS:  cpu time    0.02: real time    0.02
    CHARGE:  cpu time   25.59: real time   25.84
    MIXING:  cpu time    0.06: real time    0.06
    --------------------------------------------
      LOOP:  cpu time 1082.41: real time 1086.89

 eigenvalue-minimisations  : 11080
 total energy-change (2. order) : 0.1469273E-01  (-0.2260199E-01)
 number of electron     489.9999914 magnetization 
 augmentation part      134.5875012 magnetization 

 Broyden mixing:
  rms(total) = 0.16514E+00    rms(broyden)= 0.16514E+00
  rms(prec ) = 0.17139E+00
  weight for this iteration     100.00

 eigenvalues of (default mixing * dielectric matrix)
  average eigenvalue GAMMA=   1.4192
  1.8169  1.8169  1.0216  1.0216

 Free energy of the ion-electron system (eV)
  ---------------------------------------------------
  alpha Z        PSCENC =      1241.77088299
  Ewald energy   TEWEN  =    -31464.54371708
  -Hartree energ DENC   =    -13498.53876025
  -exchange      EXHF   =         0.00000000
  -V(xc)+E(xc)   XCENC  =      1099.22881999
  PAW double counting   =     59683.30859695   -59131.36409860
  entropy T*S    EENTRO =         0.00000000
  eigenvalues    EBANDS =     -2291.87321857
  atomic energy  EATOM  =     44156.17162135
  ---------------------------------------------------
  free energy    TOTEN  =      -205.83987321 eV

  energy without entropy =     -205.83987321  energy(sigma->0) =     -205.83987321


--------------------------------------------------------------------------------------------------------




----------------------------------------- Iteration    1(  10)  ---------------------------------------


    POTLOK:  cpu time    1.60: real time    1.60
    SETDIJ:  cpu time    0.08: real time    0.08
     EDDAV:  cpu time 1199.38: real time 1202.16
 BZINTS: Fermi energy:  3.758594;490.000000 electrons
         Band energy:***********;  BLOECHL correction:  0.000000
       DOS:  cpu time    0.02: real time    0.02
    CHARGE:  cpu time   21.41: real time   21.41
    MIXING:  cpu time    0.07: real time    0.07
    --------------------------------------------
      LOOP:  cpu time 1222.56: real time 1225.40

 eigenvalue-minimisations  : 10816
 total energy-change (2. order) :-0.3430373E-02  (-0.3242632E-02)
 number of electron     489.9999914 magnetization 
 augmentation part      134.6102785 magnetization 

 Broyden mixing:
  rms(total) = 0.11476E+00    rms(broyden)= 0.11476E+00
  rms(prec ) = 0.11768E+00
  weight for this iteration     100.00

 eigenvalues of (default mixing * dielectric matrix)
  average eigenvalue GAMMA=   1.6103
  2.4817  2.4817  1.1479  1.1479  0.7921

 Free energy of the ion-electron system (eV)
  ---------------------------------------------------
  alpha Z        PSCENC =      1241.77088299
  Ewald energy   TEWEN  =    -31464.54371708
  -Hartree energ DENC   =    -13496.82914899
  -exchange      EXHF   =         0.00000000
  -V(xc)+E(xc)   XCENC  =      1099.30601399
  PAW double counting   =     59555.29233001   -59002.76815531
  entropy T*S    EENTRO =         0.00000000
  eigenvalues    EBANDS =     -2294.24313055
  atomic energy  EATOM  =     44156.17162135
  ---------------------------------------------------
  free energy    TOTEN  =      -205.84330358 eV

  energy without entropy =     -205.84330358  energy(sigma->0) =     -205.84330358


--------------------------------------------------------------------------------------------------------




----------------------------------------- Iteration    1(  11)  ---------------------------------------


    POTLOK:  cpu time    1.43: real time    1.43
    SETDIJ:  cpu time    0.08: real time    0.08
     EDDAV:  cpu time  939.35: real time  943.29
 BZINTS: Fermi energy:  3.758594;490.000000 electrons
         Band energy:***********;  BLOECHL correction:  0.000000
       DOS:  cpu time    0.02: real time    0.02
    CHARGE:  cpu time   20.45: real time   20.53
    MIXING:  cpu time    0.06: real time    0.05
    --------------------------------------------
      LOOP:  cpu time  961.40: real time  965.45

 eigenvalue-minimisations  : 11088
 total energy-change (2. order) :-0.4573584E-02  (-0.9813377E-03)
 number of electron     489.9999914 magnetization 
 augmentation part      134.5912560 magnetization 

 Broyden mixing:
  rms(total) = 0.30150E-01    rms(broyden)= 0.30150E-01
  rms(prec ) = 0.34792E-01
  weight for this iteration     100.00

 eigenvalues of (default mixing * dielectric matrix)
  average eigenvalue GAMMA=   1.4644
  2.3544  2.3544  1.1096  1.1096  0.9292  0.9292

 Free energy of the ion-electron system (eV)
  ---------------------------------------------------
  alpha Z        PSCENC =      1241.77088299
  Ewald energy   TEWEN  =    -31464.54371708
  -Hartree energ DENC   =    -13498.49074367
  -exchange      EXHF   =         0.00000000
  -V(xc)+E(xc)   XCENC  =      1099.46920781
  PAW double counting   =     59455.57993522   -58902.97281460
  entropy T*S    EENTRO =         0.00000000
  eigenvalues    EBANDS =     -2292.83224919
  atomic energy  EATOM  =     44156.17162135
  ---------------------------------------------------
  free energy    TOTEN  =      -205.84787717 eV

  energy without entropy =     -205.84787717  energy(sigma->0) =     -205.84787717


--------------------------------------------------------------------------------------------------------




----------------------------------------- Iteration    1(  12)  ---------------------------------------


    POTLOK:  cpu time    1.50: real time    1.50
    SETDIJ:  cpu time    0.07: real time    0.07
     EDDAV:  cpu time 1022.18: real time 1028.12
 BZINTS: Fermi energy:  3.766797;490.000000 electrons
         Band energy:***********;  BLOECHL correction:  0.000000
       DOS:  cpu time    0.02: real time    0.02
    CHARGE:  cpu time   20.68: real time   20.72
    MIXING:  cpu time    0.06: real time    0.06
    --------------------------------------------
      LOOP:  cpu time 1044.51: real time 1050.60

 eigenvalue-minimisations  : 10856
 total energy-change (2. order) : 0.1352461E-02  (-0.4294915E-03)
 number of electron     489.9999914 magnetization 
 augmentation part      134.6092555 magnetization 

 Broyden mixing:
  rms(total) = 0.18925E-01    rms(broyden)= 0.18925E-01
  rms(prec ) = 0.19672E-01
  weight for this iteration     100.00

 eigenvalues of (default mixing * dielectric matrix)
  average eigenvalue GAMMA=   1.5013
  2.3077  2.3077  1.4893  1.4893  1.0648  1.0648  0.7858

 Free energy of the ion-electron system (eV)
  ---------------------------------------------------
  alpha Z        PSCENC =      1241.77088299
  Ewald energy   TEWEN  =    -31464.54371708
  -Hartree energ DENC   =    -13498.00598719
  -exchange      EXHF   =         0.00000000
  -V(xc)+E(xc)   XCENC  =      1099.51601946
  PAW double counting   =     59466.60429230   -58913.67682694
  entropy T*S    EENTRO =         0.00000000
  eigenvalues    EBANDS =     -2293.68280961
  atomic energy  EATOM  =     44156.17162135
  ---------------------------------------------------
  free energy    TOTEN  =      -205.84652471 eV

  energy without entropy =     -205.84652471  energy(sigma->0) =     -205.84652471


--------------------------------------------------------------------------------------------------------




----------------------------------------- Iteration    1(  13)  ---------------------------------------


    POTLOK:  cpu time    1.92: real time    1.92
    SETDIJ:  cpu time    0.07: real time    0.07
     EDDAV:  cpu time 1030.48: real time 1033.67
 BZINTS: Fermi energy:  3.760937;490.000000 electrons
         Band energy:***********;  BLOECHL correction:  0.000000
       DOS:  cpu time    0.02: real time    0.02
    CHARGE:  cpu time   20.68: real time   20.68
    MIXING:  cpu time    0.08: real time    0.08
    --------------------------------------------
      LOOP:  cpu time 1053.25: real time 1056.45

 eigenvalue-minimisations  : 10512
 total energy-change (2. order) :-0.2552279E-03  (-0.1263368E-03)
 number of electron     489.9999914 magnetization 
 augmentation part      134.6139566 magnetization 

 Broyden mixing:
  rms(total) = 0.91130E-02    rms(broyden)= 0.91130E-02
  rms(prec ) = 0.94241E-02
  weight for this iteration     100.00

 eigenvalues of (default mixing * dielectric matrix)
  average eigenvalue GAMMA=   1.5097
  2.5138  2.5138  1.4688  1.4688  1.2102  0.8506  1.0256  1.0256

 Free energy of the ion-electron system (eV)
  ---------------------------------------------------
  alpha Z        PSCENC =      1241.77088299
  Ewald energy   TEWEN  =    -31464.54371708
  -Hartree energ DENC   =    -13498.30849730
  -exchange      EXHF   =         0.00000000
  -V(xc)+E(xc)   XCENC  =      1099.55159353
  PAW double counting   =     59471.00726797   -58918.03776116
  entropy T*S    EENTRO =         0.00000000
  eigenvalues    EBANDS =     -2293.45817024
  atomic energy  EATOM  =     44156.17162135
  ---------------------------------------------------
  free energy    TOTEN  =      -205.84677994 eV

  energy without entropy =     -205.84677994  energy(sigma->0) =     -205.84677994


--------------------------------------------------------------------------------------------------------




----------------------------------------- Iteration    1(  14)  ---------------------------------------


    POTLOK:  cpu time    2.02: real time    2.03
    SETDIJ:  cpu time    0.07: real time    0.07
     EDDAV:  cpu time  964.78: real time  970.77
 BZINTS: Fermi energy:  3.760937;490.000000 electrons
         Band energy:***********;  BLOECHL correction:  0.000000
       DOS:  cpu time    0.02: real time    0.02
    CHARGE:  cpu time   19.91: real time   20.36
    MIXING:  cpu time    0.06: real time    0.06
    --------------------------------------------
      LOOP:  cpu time  986.86: real time  993.33

 eigenvalue-minimisations  :  9024
 total energy-change (2. order) :-0.5450244E-04  (-0.1022875E-04)
 number of electron     489.9999914 magnetization 
 augmentation part      134.6126235 magnetization 

 Broyden mixing:
  rms(total) = 0.39426E-02    rms(broyden)= 0.39426E-02
  rms(prec ) = 0.40296E-02
  weight for this iteration     100.00

 eigenvalues of (default mixing * dielectric matrix)
  average eigenvalue GAMMA=   1.4558
  2.5992  2.2874  1.7382  1.4091  1.4091  1.0298  1.0298  0.8624  0.7375

 Free energy of the ion-electron system (eV)
  ---------------------------------------------------
  alpha Z        PSCENC =      1241.77088299
  Ewald energy   TEWEN  =    -31464.54371708
  -Hartree energ DENC   =    -13498.51592111
  -exchange      EXHF   =         0.00000000
  -V(xc)+E(xc)   XCENC  =      1099.56662922
  PAW double counting   =     59454.08372772   -58901.10648705
  entropy T*S    EENTRO =         0.00000000
  eigenvalues    EBANDS =     -2293.27357047
  atomic energy  EATOM  =     44156.17162135
  ---------------------------------------------------
  free energy    TOTEN  =      -205.84683444 eV

  energy without entropy =     -205.84683444  energy(sigma->0) =     -205.84683444


--------------------------------------------------------------------------------------------------------




----------------------------------------- Iteration    1(  15)  ---------------------------------------


    POTLOK:  cpu time    1.57: real time    1.57
    SETDIJ:  cpu time    0.08: real time    0.08
     EDDAV:  cpu time  607.26: real time  608.56
 BZINTS: Fermi energy:  3.760937;490.000000 electrons
         Band energy:***********;  BLOECHL correction:  0.000000
       DOS:  cpu time    0.02: real time    0.02
    --------------------------------------------
      LOOP:  cpu time  608.93: real time  610.30

 eigenvalue-minimisations  :  5640
 total energy-change (2. order) :-0.7883064E-05  (-0.1085159E-05)
 number of electron     489.9999914 magnetization 
 augmentation part      134.6126235 magnetization 

 Free energy of the ion-electron system (eV)
  ---------------------------------------------------
  alpha Z        PSCENC =      1241.77088299
  Ewald energy   TEWEN  =    -31464.54371708
  -Hartree energ DENC   =    -13498.55240751
  -exchange      EXHF   =         0.00000000
  -V(xc)+E(xc)   XCENC  =      1099.57164644
  PAW double counting   =     59457.48967776   -58904.50220350
  entropy T*S    EENTRO =         0.00000000
  eigenvalues    EBANDS =     -2293.25234277
  atomic energy  EATOM  =     44156.17162135
  ---------------------------------------------------
  free energy    TOTEN  =      -205.84684232 eV

  energy without entropy =     -205.84684232  energy(sigma->0) =     -205.84684232


--------------------------------------------------------------------------------------------------------




 average (electrostatic) potential at core
  the test charge radii are     1.0698  1.0774  0.9698
  (the norm of the test charge is              1.0000)
       1 -37.4967       2 -37.4965       3 -36.8348       4 -37.4963       5 -37.4901
       6 -37.4889       7 -37.4888       8 -37.4282       9 -96.9831      10 -97.0116
      11 -97.0551      12 -97.2598      13 -97.0140      14 -97.2579      15 -97.0547
      16 -96.9832      17 -97.2577      18 -97.0140      19 -97.0552      20 -97.0116
      21 -96.9828      22 -97.0121      23 -97.0122      24 -97.1944      25 -87.1386
      26 -87.1470      27 -87.1344      28 -87.0979      29 -87.0637      30 -87.0837
      31 -86.8213      32 -87.3833      33 -87.0638      34 -87.3830      35 -86.8186
      36 -87.1486      37 -87.0964      38 -87.1371      39 -87.1389      40 -87.0962
      41 -87.1484      42 -87.3835      43 -87.0835      44 -87.0641      45 -86.8213
      46 -87.0639      47 -87.1347      48 -87.1473      49 -87.1434      50 -87.1473
      51 -87.0829      52 -87.0648      53 -87.0648      54 -87.1474      55 -87.0897
 
 
 
 E-fermi :   3.7609     XC(G=0):  -9.3041     alpha+bet : -9.6552


 k-point     1 :       0.0000    0.0000    0.0000
  band No.  band energies     occupation 
      1     -10.8573      2.00000
      2     -10.8571      2.00000
      3     -10.8039      2.00000
      4     -10.7262      2.00000
      5     -10.7231      2.00000
      6     -10.6887      2.00000
      7     -10.6750      2.00000
      8     -10.6744      2.00000
      9     -10.6740      2.00000
     10     -10.6370      2.00000
     11     -10.6368      2.00000
     12     -10.5682      2.00000
     13     -10.5675      2.00000
     14     -10.5620      2.00000
     15     -10.5456      2.00000
     16     -10.5268      2.00000
     17     -10.5142      2.00000
     18     -10.5141      2.00000
     19     -10.4999      2.00000
     20     -10.4700      2.00000
     21     -10.4692      2.00000
     22     -10.4546      2.00000
     23     -10.4536      2.00000
     24     -10.4380      2.00000
     25     -10.4295      2.00000
     26     -10.4252      2.00000
     27     -10.4248      2.00000
     28     -10.4166      2.00000
     29     -10.4157      2.00000
     30     -10.3976      2.00000
     31     -10.3780      2.00000
     32     -10.3777      2.00000
     33     -10.3776      2.00000
     34     -10.3667      2.00000
     35     -10.3666      2.00000
     36     -10.3331      2.00000
     37     -10.3295      2.00000
     38     -10.3294      2.00000
     39     -10.3223      2.00000
     40     -10.3142      2.00000
     41     -10.3136      2.00000
     42     -10.2947      2.00000
     43     -10.2697      2.00000
     44     -10.2694      2.00000
     45     -10.2690      2.00000
     46     -10.2688      2.00000
     47     -10.2659      2.00000
     48     -10.2565      2.00000
     49     -10.2469      2.00000
     50     -10.2467      2.00000
     51     -10.2464      2.00000
     52     -10.2292      2.00000
     53     -10.2292      2.00000
     54     -10.2217      2.00000
     55     -10.2212      2.00000
     56     -10.2167      2.00000
     57     -10.2164      2.00000
     58     -10.2106      2.00000
     59     -10.2099      2.00000
     60     -10.2066      2.00000
     61     -10.2024      2.00000
     62     -10.2021      2.00000
     63     -10.1943      2.00000
     64     -10.1939      2.00000
     65     -10.1904      2.00000
     66     -10.1901      2.00000
     67     -10.1795      2.00000
     68     -10.1729      2.00000
     69     -10.1726      2.00000
     70     -10.1713      2.00000
     71     -10.1702      2.00000
     72     -10.1668      2.00000
     73     -10.1668      2.00000
     74     -10.1601      2.00000
     75     -10.1593      2.00000
     76     -10.1592      2.00000
     77     -10.1553      2.00000
     78     -10.1378      2.00000
     79     -10.1275      2.00000
     80     -10.1275      2.00000
     81      -9.3916      2.00000
     82      -8.9687      2.00000
     83      -8.9671      2.00000
     84      -8.9520      2.00000
     85      -8.9212      2.00000
     86      -8.8594      2.00000
     87      -8.8589      2.00000
     88      -8.4671      2.00000
     89      -8.3510      2.00000
     90      -8.3504      2.00000
     91      -8.2409      2.00000
     92      -8.2052      2.00000
     93      -8.2042      2.00000
     94      -8.1704      2.00000
     95      -8.0956      2.00000
     96      -8.0955      2.00000
     97      -7.9986      2.00000
     98      -7.9977      2.00000
     99      -7.9928      2.00000
    100      -7.9765      2.00000
    101      -7.9764      2.00000
    102      -7.9357      2.00000
    103      -7.6086      2.00000
    104      -7.6085      2.00000
    105      -7.5839      2.00000
    106      -7.5464      2.00000
    107      -7.5453      2.00000
    108      -7.5203      2.00000
    109      -7.4940      2.00000
    110      -7.3098      2.00000
    111      -7.3086      2.00000
    112      -4.3021      2.00000
    113      -4.3015      2.00000
    114      -4.3011      2.00000
    115      -4.2813      2.00000
    116      -4.2813      2.00000
    117      -4.2780      2.00000
    118      -4.2220      2.00000
    119      -4.2171      2.00000
    120      -4.2170      2.00000
    121      -4.1857      2.00000
    122      -4.1853      2.00000
    123      -4.1781      2.00000
    124      -4.1570      2.00000
    125      -4.1570      2.00000
    126      -4.1418      2.00000
    127      -4.1393      2.00000
    128      -4.1393      2.00000
    129      -4.1389      2.00000
    130      -4.1388      2.00000
    131      -4.1355      2.00000
    132      -4.1351      2.00000
    133      -4.1346      2.00000
    134      -4.1331      2.00000
    135      -4.1245      2.00000
    136      -4.1244      2.00000
    137      -4.1233      2.00000
    138      -4.1232      2.00000
    139      -4.1166      2.00000
    140      -4.1163      2.00000
    141      -4.1012      2.00000
    142      -4.0848      2.00000
    143      -4.0821      2.00000
    144      -4.0819      2.00000
    145      -4.0704      2.00000
    146      -4.0704      2.00000
    147      -3.4228      2.00000
    148      -3.4227      2.00000
    149      -3.4162      2.00000
    150      -3.4155      2.00000
    151      -3.3892      2.00000
    152      -2.1123      2.00000
    153      -2.0411      2.00000
    154      -1.9896      2.00000
    155      -1.9892      2.00000
    156      -1.7314      2.00000
    157      -1.6107      2.00000
    158      -1.6094      2.00000
    159      -1.5494      2.00000
    160      -1.5491      2.00000
    161      -1.4956      2.00000
    162      -1.4860      2.00000
    163      -1.3194      2.00000
    164      -1.1812      2.00000
    165      -1.1805      2.00000
    166      -1.1534      2.00000
    167      -1.1533      2.00000
    168      -1.0036      2.00000
    169      -0.3211      2.00000
    170      -0.3207      2.00000
    171      -0.2652      2.00000
    172      -0.2646      2.00000
    173      -0.2310      2.00000
    174      -0.2306      2.00000
    175      -0.2285      2.00000
    176       0.0986      2.00000
    177       0.3662      2.00000
    178       0.3996      2.00000
    179       0.4006      2.00000
    180       0.4700      2.00000
    181       0.4702      2.00000
    182       0.4772      2.00000
    183       0.6845      2.00000
    184       0.7232      2.00000
    185       0.7237      2.00000
    186       0.7533      2.00000
    187       0.7773      2.00000
    188       0.7775      2.00000
    189       0.9481      2.00000
    190       0.9485      2.00000
    191       0.9621      2.00000
    192       0.9976      2.00000
    193       0.9977      2.00000
    194       1.0123      2.00000
    195       1.0258      2.00000
    196       1.0258      2.00000
    197       1.0273      2.00000
    198       1.1121      2.00000
    199       1.1367      2.00000
    200       1.1369      2.00000
    201       1.2337      2.00000
    202       1.2345      2.00000
    203       1.5163      2.00000
    204       1.5510      2.00000
    205       1.5802      2.00000
    206       1.5819      2.00000
    207       1.6042      2.00000
    208       1.6049      2.00000
    209       1.6142      2.00000
    210       1.7926      2.00000
    211       1.7927      2.00000
    212       1.8892      2.00000
    213       1.9228      2.00000
    214       1.9306      2.00000
    215       1.9307      2.00000
    216       1.9881      2.00000
    217       2.1486      2.00000
    218       2.1487      2.00000
    219       2.2282      2.00000
    220       2.2604      2.00000
    221       2.2611      2.00000
    222       2.3122      2.00000
    223       2.4543      2.00000
    224       2.4550      2.00000
    225       2.6799      2.00000
    226       2.6803      2.00000
    227       2.7153      2.00000
    228       2.7805      2.00000
    229       2.8075      2.00000
    230       2.8153      2.00000
    231       2.8167      2.00000
    232       2.8245      2.00000
    233       2.8249      2.00000
    234       2.9171      2.00000
    235       2.9174      2.00000
    236       2.9782      2.00000
    237       2.9793      2.00000
    238       2.9819      2.00000
    239       3.0163      2.00000
    240       3.0169      2.00000
    241       3.0217      2.00000
    242       3.0946      2.00000
    243       3.0948      2.00000
    244       3.0984      2.00000
    245       3.2334      2.00000
    246       4.6319      0.00000
    247       5.1068      0.00000
    248       5.1072      0.00000
    249       5.2434      0.00000
    250       5.7072      0.00000
    251       5.8001      0.00000
    252       5.8039      0.00000
    253       5.8324      0.00000
    254       6.3110      0.00000
    255       6.3111      0.00000
    256       6.3117      0.00000
    257       6.4359      0.00000
    258       6.4369      0.00000
    259       6.5366      0.00000
    260       6.5822      0.00000
    261       6.5827      0.00000
    262       6.5883      0.00000
    263       6.9573      0.00000
    264       7.0679      0.00000
    265       7.4966      0.00000
    266       7.4974      0.00000
    267       7.5223      0.00000
    268       7.5228      0.00000
    269       7.5438      0.00000
    270       7.5824      0.00000
    271       7.5829      0.00000
    272       7.9897      0.00000
    273       7.9903      0.00000
    274       7.9913      0.00000
    275       8.4960      0.00000
    276       8.5257      0.00000
    277       8.5265      0.00000
    278       8.6729      0.00000
    279       8.6734      0.00000
    280       8.7482      0.00000
    281       8.7485      0.00000
    282       8.7813      0.00000
    283       8.8076      0.00000
    284       8.8504      0.00000
    285       8.8519      0.00000
    286       9.1630      0.00000
    287       9.1959      0.00000
    288       9.1959      0.00000
    289       9.4682      0.00000
    290       9.5020      0.00000
    291       9.5029      0.00000
    292       9.7630      0.00000
    293       9.7738      0.00000
    294       9.8045      0.00000
    295       9.8261      0.00000
    296       9.9747      0.00000

 k-point     2 :       0.3333    0.0000    0.0000
  band No.  band energies     occupation 
      1     -10.8545      2.00000
      2     -10.8533      2.00000
      3     -10.7949      2.00000
      4     -10.7412      2.00000
      5     -10.7280      2.00000
      6     -10.7026      2.00000
      7     -10.6973      2.00000
      8     -10.6700      2.00000
      9     -10.6647      2.00000
     10     -10.6372      2.00000
     11     -10.6256      2.00000
     12     -10.5915      2.00000
     13     -10.5614      2.00000
     14     -10.5531      2.00000
     15     -10.5317      2.00000
     16     -10.5214      2.00000
     17     -10.5188      2.00000
     18     -10.5156      2.00000
     19     -10.4783      2.00000
     20     -10.4704      2.00000
     21     -10.4684      2.00000
     22     -10.4524      2.00000
     23     -10.4520      2.00000
     24     -10.4383      2.00000
     25     -10.4316      2.00000
     26     -10.4273      2.00000
     27     -10.4203      2.00000
     28     -10.4186      2.00000
     29     -10.4017      2.00000
     30     -10.3941      2.00000
     31     -10.3864      2.00000
     32     -10.3771      2.00000
     33     -10.3707      2.00000
     34     -10.3670      2.00000
     35     -10.3644      2.00000
     36     -10.3459      2.00000
     37     -10.3321      2.00000
     38     -10.3237      2.00000
     39     -10.3177      2.00000
     40     -10.3160      2.00000
     41     -10.3139      2.00000
     42     -10.2883      2.00000
     43     -10.2851      2.00000
     44     -10.2803      2.00000
     45     -10.2759      2.00000
     46     -10.2696      2.00000
     47     -10.2676      2.00000
     48     -10.2511      2.00000
     49     -10.2480      2.00000
     50     -10.2463      2.00000
     51     -10.2435      2.00000
     52     -10.2307      2.00000
     53     -10.2297      2.00000
     54     -10.2237      2.00000
     55     -10.2231      2.00000
     56     -10.2150      2.00000
     57     -10.2137      2.00000
     58     -10.2096      2.00000
     59     -10.2091      2.00000
     60     -10.2037      2.00000
     61     -10.2026      2.00000
     62     -10.2017      2.00000
     63     -10.1967      2.00000
     64     -10.1945      2.00000
     65     -10.1882      2.00000
     66     -10.1877      2.00000
     67     -10.1830      2.00000
     68     -10.1762      2.00000
     69     -10.1733      2.00000
     70     -10.1717      2.00000
     71     -10.1707      2.00000
     72     -10.1675      2.00000
     73     -10.1669      2.00000
     74     -10.1621      2.00000
     75     -10.1585      2.00000
     76     -10.1524      2.00000
     77     -10.1466      2.00000
     78     -10.1416      2.00000
     79     -10.1330      2.00000
     80     -10.1293      2.00000
     81      -9.3351      2.00000
     82      -9.1649      2.00000
     83      -8.9643      2.00000
     84      -8.9562      2.00000
     85      -8.8998      2.00000
[...]
  6        0.411   0.285   9.562  10.259
  7        0.411   0.285   9.562  10.259
  8        0.410   0.280   9.563  10.253
  9        0.723   0.591   9.947  11.261
 10        0.725   0.585   9.946  11.256
 11        0.721   0.590   9.948  11.259
 12        0.743   0.599   9.938  11.281
 13        0.725   0.585   9.946  11.256
 14        0.743   0.598   9.938  11.280
 15        0.721   0.590   9.948  11.259
 16        0.723   0.591   9.947  11.261
 17        0.743   0.599   9.938  11.280
 18        0.725   0.585   9.946  11.256
 19        0.721   0.590   9.948  11.259
 20        0.725   0.585   9.946  11.256
 21        0.723   0.591   9.947  11.261
 22        0.725   0.585   9.946  11.256
 23        0.725   0.585   9.946  11.256
 24        0.723   0.585   9.945  11.253
 25        1.338   2.382   0.000   3.720
 26        1.340   2.371   0.000   3.711
 27        1.339   2.376   0.000   3.715
 28        1.339   2.374   0.000   3.713
 29        1.339   2.379   0.000   3.718
 30        1.340   2.373   0.000   3.713
 31        1.350   2.344   0.000   3.694
 32        1.342   2.366   0.000   3.709
 33        1.339   2.379   0.000   3.718
 34        1.342   2.366   0.000   3.708
 35        1.350   2.344   0.000   3.694
 36        1.340   2.371   0.000   3.711
 37        1.339   2.374   0.000   3.713
 38        1.339   2.376   0.000   3.715
 39        1.338   2.382   0.000   3.720
 40        1.339   2.374   0.000   3.713
 41        1.340   2.371   0.000   3.711
 42        1.342   2.366   0.000   3.708
 43        1.340   2.373   0.000   3.713
 44        1.339   2.379   0.000   3.718
 45        1.350   2.344   0.000   3.694
 46        1.339   2.379   0.000   3.718
 47        1.339   2.376   0.000   3.715
 48        1.340   2.371   0.000   3.712
 49        1.338   2.383   0.000   3.720
 50        1.340   2.371   0.000   3.712
 51        1.340   2.373   0.000   3.713
 52        1.339   2.379   0.000   3.718
 53        1.339   2.379   0.000   3.718
 54        1.340   2.371   0.000   3.711
 55        1.339   2.376   0.000   3.715
------------------------------------------------
tot       56.694  85.017 235.580 377.292
 
    CHARGE:  cpu time   22.83: real time   22.88
    FORLOC:  cpu time    0.68: real time    0.68
    FORNL :  cpu time  305.34: real time  305.79
    FORCOR:  cpu time    2.08: real time    2.08
    FORHAR:  cpu time    1.04: real time    1.05
    MIXING:  cpu time    0.06: real time    0.06
    OFIELD:  cpu time    0.00: real time    0.00

 VOLUME and BASIS-vectors are now :
 -----------------------------------------------------------------------------
  energy-cutoff  :      600.00
  volume of cell :     1339.13
      direct lattice vectors                 reciprocal lattice vectors
    11.022353692  0.000000000  0.000000000     0.090724724  0.000000000  0.000000000
     0.000000000 11.022353692  0.000000000     0.000000000  0.090724724  0.000000000
     0.000000000  0.000000000 11.022353692     0.000000000  0.000000000  0.090724724

  length of vectors
    11.022353692 11.022353692 11.022353692     0.090724724  0.090724724  0.090724724


 FORCES acting on ions
    electron-ion (+dipol)            ewald-force                    non-local-force                 convergence-correction
 -----------------------------------------------------------------------------------------------
   -.221E+01 -.198E+01 0.149E+02   0.180E+01 0.157E+01 -.142E+02   0.403E+00 0.406E+00 -.713E+00   0.552E-03 0.543E-03 -.205E-02
   -.225E+01 0.149E+02 -.208E+01   0.184E+01 -.142E+02 0.166E+01   0.403E+00 -.713E+00 0.410E+00   0.540E-03 -.201E-02 0.593E-03
   -.564E+02 -.588E+02 -.589E+02   0.535E+02 0.559E+02 0.560E+02   0.293E+01 0.294E+01 0.294E+01   0.339E-02 0.340E-02 0.339E-02
   0.150E+02 -.208E+01 -.206E+01   -.143E+02 0.166E+01 0.164E+01   -.710E+00 0.408E+00 0.409E+00   -.200E-02 0.601E-03 0.562E-03
   0.636E+01 -.974E+01 -.978E+01   -.643E+01 0.971E+01 0.976E+01   0.882E-01 0.333E-01 0.324E-01   0.185E-02 -.786E-03 -.797E-03
   -.996E+01 -.100E+02 0.651E+01   0.994E+01 0.100E+02 -.658E+01   0.271E-01 0.329E-01 0.825E-01   -.734E-03 -.752E-03 0.180E-02
   -.991E+01 0.644E+01 -.101E+02   0.989E+01 -.651E+01 0.100E+02   0.283E-01 0.827E-01 0.354E-01   -.725E-03 0.179E-02 -.725E-03
   0.161E+02 0.160E+02 0.161E+02   -.162E+02 -.161E+02 -.162E+02   0.125E+00 0.121E+00 0.120E+00   0.163E-03 0.212E-03 0.174E-03
   0.158E+02 0.156E+02 0.226E+01   -.156E+02 -.154E+02 -.832E+00   -.214E+00 -.219E+00 -.138E+01   -.806E-04 -.121E-03 0.164E-03
   -.260E+02 0.131E+02 0.149E+02   0.260E+02 -.146E+02 -.148E+02   0.186E-01 0.146E+01 -.180E+00   -.705E-03 0.232E-03 0.223E-05
   -.903E+00 -.557E+01 -.772E+00   0.786E+00 0.556E+01 0.649E+00   0.116E+00 0.113E-01 0.122E+00   0.126E-02 0.692E-03 0.134E-02
   -.838E+02 0.261E+02 0.261E+02   0.822E+02 -.256E+02 -.256E+02   0.163E+01 -.470E+00 -.469E+00   -.360E-02 -.247E-03 -.249E-03
   0.130E+02 -.262E+02 0.148E+02   -.145E+02 0.262E+02 -.146E+02   0.145E+01 0.190E-01 -.202E+00   0.243E-03 -.679E-03 0.271E-04
   0.263E+02 -.826E+02 0.258E+02   -.259E+02 0.810E+02 -.253E+02   -.476E+00 0.157E+01 -.476E+00   -.294E-03 -.363E-02 -.284E-03
   -.571E+01 -.860E+00 -.843E+00   0.570E+01 0.740E+00 0.727E+00   0.941E-02 0.120E+00 0.116E+00   0.731E-03 0.129E-02 0.127E-02
   0.158E+02 0.226E+01 0.156E+02   -.156E+02 -.830E+00 -.155E+02   -.214E+00 -.138E+01 -.219E+00   -.106E-03 0.150E-03 -.669E-04
   0.264E+02 0.259E+02 -.826E+02   -.259E+02 -.254E+02 0.810E+02   -.476E+00 -.477E+00 0.157E+01   -.256E-03 -.255E-03 -.361E-02
   0.130E+02 0.148E+02 -.263E+02   -.144E+02 -.146E+02 0.262E+02   0.145E+01 -.201E+00 0.193E-01   0.247E-03 0.283E-04 -.721E-03
   -.959E+00 -.931E+00 -.557E+01   0.841E+00 0.807E+00 0.556E+01   0.119E+00 0.123E+00 0.937E-02   0.127E-02 0.131E-02 0.721E-03
   -.260E+02 0.149E+02 0.132E+02   0.260E+02 -.148E+02 -.147E+02   0.172E-01 -.180E+00 0.146E+01   -.758E-03 0.202E-04 0.235E-03
   0.181E+01 0.160E+02 0.161E+02   -.367E+00 -.158E+02 -.159E+02   -.139E+01 -.218E+00 -.220E+00   0.203E-03 -.776E-04 -.892E-04
   0.150E+02 -.260E+02 0.133E+02   -.148E+02 0.260E+02 -.147E+02   -.178E+00 0.161E-01 0.144E+01   0.444E-04 -.716E-03 0.264E-03
   0.150E+02 0.132E+02 -.261E+02   -.148E+02 -.147E+02 0.260E+02   -.179E+00 0.144E+01 0.156E-01   0.561E-05 0.241E-03 -.676E-03
   -.161E+02 -.156E+02 -.158E+02   0.157E+02 0.153E+02 0.154E+02   0.319E+00 0.317E+00 0.321E+00   -.103E-02 -.100E-02 -.102E-02
   0.536E+02 0.535E+02 0.713E+02   -.528E+02 -.527E+02 -.714E+02   -.818E+00 -.819E+00 0.964E-01   -.331E-03 -.327E-03 0.314E-03
   -.558E+02 -.573E+02 0.520E+02   0.556E+02 0.562E+02 -.511E+02   0.225E+00 0.110E+01 -.904E+00   0.257E-03 -.532E-03 -.286E-03
   -.614E+02 0.522E+02 -.614E+02   0.607E+02 -.517E+02 0.607E+02   0.706E+00 -.507E+00 0.702E+00   0.195E-03 0.904E-03 0.209E-03
   0.612E+02 -.536E+02 -.536E+02   -.604E+02 0.531E+02 0.531E+02   -.840E+00 0.553E+00 0.553E+00   0.302E-03 -.313E-03 -.323E-03
   0.545E+02 0.601E+02 -.558E+02   -.536E+02 -.595E+02 0.550E+02   -.921E+00 -.591E+00 0.797E+00   0.373E-03 0.334E-04 0.302E-03
   -.578E+02 -.578E+02 -.603E+02   0.570E+02 0.571E+02 0.596E+02   0.745E+00 0.736E+00 0.682E+00   0.397E-03 0.403E-03 -.588E-03
   0.998E+02 -.117E+03 0.996E+02   -.101E+03 0.118E+03 -.101E+03   0.138E+01 -.151E+01 0.138E+01   -.120E-04 0.128E-03 -.480E-05
   -.551E+02 0.421E+02 0.420E+02   0.544E+02 -.419E+02 -.419E+02   0.699E+00 -.183E+00 -.181E+00   -.579E-03 -.785E-03 -.783E-03
   0.601E+02 0.546E+02 -.559E+02   -.595E+02 -.537E+02 0.551E+02   -.591E+00 -.918E+00 0.793E+00   0.218E-04 0.348E-03 0.319E-03
   0.417E+02 -.553E+02 0.419E+02   -.415E+02 0.545E+02 -.417E+02   -.183E+00 0.704E+00 -.170E+00   -.783E-03 -.583E-03 -.771E-03
   -.117E+03 0.100E+03 0.100E+03   0.118E+03 -.101E+03 -.101E+03   -.151E+01 0.139E+01 0.139E+01   0.112E-03 0.957E-05 -.104E-04
   -.579E+02 -.556E+02 0.520E+02   0.568E+02 0.554E+02 -.511E+02   0.109E+01 0.217E+00 -.906E+00   -.507E-03 0.272E-03 -.272E-03
   -.536E+02 0.613E+02 -.537E+02   0.530E+02 -.604E+02 0.531E+02   0.559E+00 -.837E+00 0.559E+00   -.332E-03 0.287E-03 -.325E-03
   0.521E+02 -.613E+02 -.613E+02   -.516E+02 0.606E+02 0.606E+02   -.518E+00 0.708E+00 0.712E+00   0.898E-03 0.207E-03 0.209E-03
   0.536E+02 0.712E+02 0.535E+02   -.528E+02 -.713E+02 -.527E+02   -.818E+00 0.962E-01 -.818E+00   -.328E-03 0.313E-03 -.312E-03
   -.536E+02 -.537E+02 0.613E+02   0.530E+02 0.531E+02 -.605E+02   0.560E+00 0.559E+00 -.838E+00   -.315E-03 -.318E-03 0.298E-03
   -.579E+02 0.521E+02 -.556E+02   0.568E+02 -.511E+02 0.554E+02   0.109E+01 -.908E+00 0.217E+00   -.505E-03 -.272E-03 0.257E-03
   0.416E+02 0.419E+02 -.552E+02   -.415E+02 -.417E+02 0.545E+02   -.185E+00 -.173E+00 0.703E+00   -.780E-03 -.790E-03 -.588E-03
   -.578E+02 -.602E+02 -.578E+02   0.570E+02 0.596E+02 0.571E+02   0.744E+00 0.684E+00 0.736E+00   0.392E-03 -.586E-03 0.404E-03
   0.601E+02 -.559E+02 0.546E+02   -.595E+02 0.551E+02 -.537E+02   -.589E+00 0.794E+00 -.918E+00   0.326E-04 0.323E-03 0.365E-03
   0.998E+02 0.996E+02 -.117E+03   -.101E+03 -.101E+03 0.118E+03   0.138E+01 0.138E+01 -.151E+01   -.968E-05 0.784E-07 0.132E-03
   0.545E+02 -.559E+02 0.601E+02   -.536E+02 0.551E+02 -.595E+02   -.921E+00 0.795E+00 -.595E+00   0.381E-03 0.293E-03 0.278E-04
   -.615E+02 -.614E+02 0.523E+02   0.608E+02 0.607E+02 -.517E+02   0.706E+00 0.705E+00 -.510E+00   0.209E-03 0.203E-03 0.913E-03
   -.558E+02 0.521E+02 -.573E+02   0.556E+02 -.512E+02 0.562E+02   0.229E+00 -.905E+00 0.110E+01   0.263E-03 -.287E-03 -.526E-03
   0.720E+02 0.532E+02 0.532E+02   -.721E+02 -.524E+02 -.523E+02   0.125E+00 -.819E+00 -.819E+00   0.323E-03 -.326E-03 -.341E-03
   0.523E+02 -.558E+02 -.574E+02   -.514E+02 0.556E+02 0.563E+02   -.900E+00 0.227E+00 0.110E+01   -.282E-03 0.258E-03 -.519E-03
   -.602E+02 -.577E+02 -.577E+02   0.595E+02 0.570E+02 0.570E+02   0.684E+00 0.743E+00 0.745E+00   -.584E-03 0.395E-03 0.377E-03
   -.559E+02 0.546E+02 0.601E+02   0.551E+02 -.537E+02 -.595E+02   0.796E+00 -.915E+00 -.589E+00   0.308E-03 0.350E-03 0.332E-04
   -.559E+02 0.601E+02 0.546E+02   0.551E+02 -.595E+02 -.537E+02   0.796E+00 -.591E+00 -.916E+00   0.317E-03 0.285E-04 0.361E-03
   0.522E+02 -.574E+02 -.558E+02   -.513E+02 0.563E+02 0.556E+02   -.899E+00 0.110E+01 0.225E+00   -.277E-03 -.536E-03 0.259E-03
   0.607E+02 0.607E+02 0.607E+02   -.602E+02 -.601E+02 -.602E+02   -.554E+00 -.557E+00 -.557E+00   0.594E-03 0.610E-03 0.609E-03
 -----------------------------------------------------------------------------------------------
   -.757E+01 -.750E+01 -.751E+01   0.355E-13 0.320E-12 -.171E-12   0.757E+01 0.750E+01 0.751E+01   -.416E-04 -.513E-04 -.795E-05
 
 
 POSITION                                       TOTAL-FORCE (eV/Angst)
 -----------------------------------------------------------------------------------
      0.03399      0.03348      0.03359        -0.007579     -0.007736     -0.005834
      0.03346      5.54499      5.54446        -0.006748     -0.007227     -0.006288
      4.79332      4.78583     10.29672         0.001488      0.001370      0.001630
      5.54412      0.03327      5.54430        -0.005184     -0.007160     -0.006930
      8.21707      2.74373      8.25451         0.011881      0.005987      0.006115
      2.74533      2.74555      2.70572         0.008249      0.006749      0.016440
      2.74578      8.21653      8.25693         0.007725      0.016489      0.006117
      8.27571      8.27571      2.76454        -0.003051     -0.002058     -0.002032
      6.92262      6.92279      6.93837        -0.020855     -0.021077      0.046100
      4.16301      9.56764      1.40105        -0.009642     -0.003927     -0.001714
      9.66938      1.39778      4.15759         0.000218      0.003821      0.000217
      1.24384      4.17259      9.68372         0.006899     -0.002887     -0.002879
      9.56790      4.16305      1.40202        -0.004211     -0.009469     -0.002191
      4.17327      1.25230      9.68428         0.002960     -0.009232      0.001089
      1.39761      9.66890      4.15840         0.004331      0.000735      0.000378
      6.92263      1.42724      1.41158        -0.020732      0.046059     -0.020867
      4.17303      4.17314      6.76337         0.001688      0.001050     -0.009478
      9.56789      6.91324      9.67420        -0.004307     -0.002223     -0.009247
      9.66896      9.66897      6.90917         0.001851      0.000654      0.002828
      4.16301      6.91225      4.05638        -0.009738     -0.002214     -0.004152
      1.42726      6.92280      1.41151         0.047688     -0.021092     -0.021219
      6.91198      4.16314      4.05663        -0.002449     -0.010354     -0.002475
      6.91200      9.56783      9.67430        -0.002499     -0.002649     -0.010195
      1.41285      1.41239      6.92371        -0.006839     -0.011532     -0.010231
      4.24295      4.24322      4.19045         0.002212      0.001975     -0.015568
      6.77895      1.25699      9.76720         0.018193     -0.010387      0.008395
      1.30338      9.78900      6.81461         0.005212      0.035711      0.005988
      9.78334      6.80013      1.28896        -0.004461      0.000506      0.000119
      1.50582      7.02180      4.06356         0.003676      0.003987     -0.009192
      9.57338      9.57402      9.55895        -0.011931     -0.012463     -0.004172
      6.95587      4.03827      1.44467         0.012171      0.001616      0.010294
      4.07692      1.57122      7.08240        -0.024345     -0.004275     -0.003881
      7.02216      1.50594      4.06387         0.002881      0.003742     -0.009917
      1.57120      4.07695      7.08241        -0.005766     -0.024221      0.000389
      4.03801      6.95582      1.44464         0.002612      0.010748      0.010388
      1.25714      6.77825      9.76748        -0.012089      0.014961      0.008705
      6.80014      9.78335      1.28896         0.002120     -0.004098      0.002718
      9.79108      1.30292      6.81377         0.027422      0.006028      0.007802
      4.24294      9.70167      9.75443         0.002489     -0.015020      0.002356
      6.80014      6.80017      4.27218         0.002459      0.002498     -0.004686
      1.25714      4.25630      1.26708        -0.012372      0.008227      0.014524
      1.57120      1.57124      9.58811        -0.004851      0.000266     -0.024874
      9.57337      4.04770      4.06289        -0.012778     -0.004623     -0.013178
      7.02196      9.57489      7.01705         0.002790     -0.008813      0.003875
      6.95585      6.95586      9.54942         0.011860      0.010526      0.001756
      1.50606      9.57505      1.51146         0.001904     -0.009444      0.000870
      1.30337      1.30341      4.27876         0.006663      0.004802      0.031618
      6.77828      4.25631      6.76832         0.021422      0.006980     -0.010498
      9.69894      4.24220      9.75316        -0.027057      0.010530      0.011129
      4.25631      6.77827      6.76832         0.007869      0.020922     -0.009780
      4.04738      9.57347      4.06230        -0.003865     -0.012250     -0.012000
      9.57503      1.50595      1.51097        -0.009819      0.004173      0.001837
      9.57496      7.02230      7.01716        -0.010285      0.001506      0.004125
      4.25626      1.25750      1.26706         0.008519     -0.010940      0.020363
      9.77315      9.77338      4.26222         0.006003      0.004753      0.005310
 -----------------------------------------------------------------------------------
    total drift:                                0.001853      0.001773      0.001752


--------------------------------------------------------------------------------------------------------



  FREE ENERGIE OF THE ION-ELECTRON SYSTEM (eV)
  ---------------------------------------------------
  free  energy   TOTEN  =      -205.84684232 eV

  energy  without entropy=     -205.84684232  energy(sigma->0) =     -205.84684232
 


--------------------------------------------------------------------------------------------------------


    POTLOK:  cpu time    1.58: real time    1.59


--------------------------------------------------------------------------------------------------------


 writing wavefunctions
     LOOP+:  cpu time15092.17: real time15154.56
    4ORBIT:  cpu time    0.00: real time    0.00
 


 total charge     
 
# of ion     s       p       d       tot
----------------------------------------
  1        0.413   0.281   9.562  10.256
  2        0.413   0.281   9.562  10.256
  3        0.619   0.078   9.527  10.224
  4        0.413   0.281   9.562  10.256
  5        0.411   0.285   9.562  10.259
  6        0.411   0.285   9.562  10.259
  7        0.411   0.285   9.562  10.259
  8        0.410   0.280   9.563  10.253
  9        0.723   0.591   9.947  11.261
 10        0.725   0.585   9.946  11.256
 11        0.721   0.590   9.948  11.259
 12        0.743   0.599   9.938  11.281
 13        0.725   0.585   9.946  11.256
 14        0.743   0.598   9.938  11.280
 15        0.721   0.590   9.948  11.259
 16        0.723   0.591   9.947  11.261
 17        0.743   0.599   9.938  11.280
 18        0.725   0.585   9.946  11.256
 19        0.721   0.590   9.948  11.259
 20        0.725   0.585   9.946  11.256
 21        0.723   0.591   9.947  11.261
 22        0.725   0.585   9.946  11.256
 23        0.725   0.585   9.946  11.256
 24        0.723   0.585   9.945  11.253
 25        1.338   2.382   0.000   3.720
 26        1.340   2.371   0.000   3.711
 27        1.339   2.376   0.000   3.715
 28        1.339   2.374   0.000   3.713
 29        1.339   2.379   0.000   3.718
 30        1.340   2.373   0.000   3.713
 31        1.350   2.344   0.000   3.694
 32        1.342   2.366   0.000   3.709
 33        1.339   2.379   0.000   3.718
 34        1.342   2.366   0.000   3.708
 35        1.350   2.344   0.000   3.694
 36        1.340   2.371   0.000   3.711
 37        1.339   2.374   0.000   3.713
 38        1.339   2.376   0.000   3.715
 39        1.338   2.382   0.000   3.720
 40        1.339   2.374   0.000   3.713
 41        1.340   2.371   0.000   3.711
 42        1.342   2.366   0.000   3.708
 43        1.340   2.373   0.000   3.713
 44        1.339   2.379   0.000   3.718
 45        1.350   2.344   0.000   3.694
 46        1.339   2.379   0.000   3.718
 47        1.339   2.376   0.000   3.715
 48        1.340   2.371   0.000   3.712
 49        1.338   2.383   0.000   3.720
 50        1.340   2.371   0.000   3.712
 51        1.340   2.373   0.000   3.713
 52        1.339   2.379   0.000   3.718
 53        1.339   2.379   0.000   3.718
 54        1.340   2.371   0.000   3.711
 55        1.339   2.376   0.000   3.715
------------------------------------------------
tot       56.694  85.017 235.580 377.292
 
 BZINTS: Fermi energy:  3.760937;490.000000 electrons
         Band energy:***********;  BLOECHL correction:  0.000000

 total amount of memory used by VASP on root node   660661. kBytes
========================================================================

   base      :      30000. kBytes
   nonl-proj :     154993. kBytes
   fftplans  :      35958. kBytes
   grid      :      62735. kBytes
   one-center:        435. kBytes
   wavefun   :     376540. kBytes
 
  
  
 General timing and accounting informations for this job:
 ========================================================
  
                  Total CPU time used (sec):    15277.971
                            User time (sec):    15219.607
                          System time (sec):       58.364
                         Elapsed time (sec):    15342.216
  
                   Maximum memory used (kb):      657660.
                   Average memory used (kb):           0.
  
                          Minor page faults:     21969889
                          Major page faults:            4
                 Voluntary context switches:         4595
