   8   8   1   0
  0.1048545E+03  0.8455000E-09  0.1305200E-08  0.9267000E-09  0.5000000E-15
  1.000000000000000E-004
  CAR 
 S8                                      
     10.00000000     -5.00000000 1601     -4.55468750      1.00000000
     -5.000  0.0000E+00  0.4000E+02
     -4.991  0.0000E+00  0.4000E+02
     -4.981  0.0000E+00  0.4000E+02
     -4.972  0.0000E+00  0.4000E+02
     -4.963  0.0000E+00  0.4000E+02
     -4.953  0.0000E+00  0.4000E+02
     -4.944  0.0000E+00  0.4000E+02
     -4.934  0.0000E+00  0.4000E+02
     -4.925  0.0000E+00  0.4000E+02
     -4.916  0.0000E+00  0.4000E+02
     -4.906  0.0000E+00  0.4000E+02
     -4.897  0.0000E+00  0.4000E+02
     -4.888  0.0000E+00  0.4000E+02
     -4.878  0.0000E+00  0.4000E+02
     -4.869  0.0000E+00  0.4000E+02
     -4.859  0.0000E+00  0.4000E+02
     -4.850  0.0000E+00  0.4000E+02
     -4.841  0.1025E+02  0.4204E+02
     -4.831  0.1025E+02  0.4214E+02
     -4.822  0.1025E+02  0.4223E+02
     -4.812  0.1025E+02  0.4233E+02
     -4.803  0.1025E+02  0.4243E+02
     -4.794  0.1025E+02  0.4252E+02
     -4.784  0.1025E+02  0.4262E+02
     -4.775  0.1025E+02  0.4272E+02
     -4.766  0.1025E+02  0.4281E+02
     -4.756  0.1025E+02  0.4291E+02
     -4.747  0.1025E+02  0.4300E+02
     -4.737  0.1025E+02  0.4310E+02
     -4.728  0.1025E+02  0.4320E+02
     -4.719  0.1025E+02  0.4329E+02
     -4.709  0.0000E+00  0.4400E+02
     -4.700  0.0000E+00  0.4400E+02
     -4.691  0.1210E+02  0.4406E+02
     -4.681  0.1210E+02  0.4418E+02
     -4.672  0.1210E+02  0.4429E+02
     -4.662  0.1210E+02  0.4440E+02
     -4.653  0.1210E+02  0.4452E+02
     -4.644  0.1210E+02  0.4463E+02
     -4.634  0.1210E+02  0.4474E+02
     -4.625  0.1209E+02  0.4486E+02
     -4.616  0.1209E+02  0.4497E+02
     -4.606  0.1209E+02  0.4508E+02
     -4.597  0.1209E+02  0.4520E+02
     -4.588  0.1209E+02  0.4531E+02
     -4.578  0.1192E+02  0.4601E+02
     -4.569  0.9773E+02  0.4640E+02
     -4.559  0.3334E+03  0.4774E+02
     -4.550  0.0000E+00  0.4800E+02
     -4.541  0.0000E+00  0.4800E+02
     -4.531  0.0000E+00  0.4800E+02
     -4.522  0.0000E+00  0.4800E+02
     -4.513  0.0000E+00  0.4800E+02
     -4.503  0.0000E+00  0.4800E+02
     -4.494  0.0000E+00  0.4800E+02
     -4.484  0.0000E+00  0.4800E+02
     -4.475  0.0000E+00  0.4800E+02
     -4.466  0.0000E+00  0.4800E+02
     -4.456  0.0000E+00  0.4800E+02
     -4.447  0.0000E+00  0.4800E+02
     -4.438  0.0000E+00  0.4800E+02
     -4.428  0.0000E+00  0.4800E+02
     -4.419  0.0000E+00  0.4800E+02
     -4.409  0.0000E+00  0.4800E+02
     -4.400  0.0000E+00  0.4800E+02
     -4.391  0.0000E+00  0.4800E+02
     -4.381  0.0000E+00  0.4800E+02
     -4.372  0.0000E+00  0.4800E+02
     -4.362  0.0000E+00  0.4800E+02
     -4.353  0.0000E+00  0.4800E+02
     -4.344  0.0000E+00  0.4800E+02
     -4.334  0.0000E+00  0.4800E+02
     -4.325  0.0000E+00  0.4800E+02
     -4.316  0.0000E+00  0.4800E+02
     -4.306  0.0000E+00  0.4800E+02
     -4.297  0.0000E+00  0.4800E+02
     -4.287  0.0000E+00  0.4800E+02
     -4.278  0.0000E+00  0.4800E+02
     -4.269  0.0000E+00  0.4800E+02
     -4.259  0.0000E+00  0.4800E+02
     -4.250  0.0000E+00  0.4800E+02
     -4.241  0.0000E+00  0.4800E+02
     -4.231  0.0000E+00  0.4800E+02
     -4.222  0.0000E+00  0.4800E+02
     -4.213  0.0000E+00  0.4800E+02
     -4.203  0.0000E+00  0.4800E+02
     -4.194  0.0000E+00  0.4800E+02
     -4.184  0.0000E+00  0.4800E+02
     -4.175  0.0000E+00  0.4800E+02
     -4.166  0.0000E+00  0.4800E+02
     -4.156  0.0000E+00  0.4800E+02
     -4.147  0.0000E+00  0.4800E+02
     -4.138  0.0000E+00  0.4800E+02
     -4.128  0.0000E+00  0.4800E+02
     -4.119  0.0000E+00  0.4800E+02
     -4.109  0.0000E+00  0.4800E+02
     -4.100  0.0000E+00  0.4800E+02
     -4.091  0.0000E+00  0.4800E+02
     -4.081  0.0000E+00  0.4800E+02
     -4.072  0.0000E+00  0.4800E+02
     -4.062  0.0000E+00  0.4800E+02
     -4.053  0.0000E+00  0.4800E+02
     -4.044  0.0000E+00  0.4800E+02
     -4.034  0.0000E+00  0.4800E+02
     -4.025  0.0000E+00  0.4800E+02
     -4.016  0.0000E+00  0.4800E+02
     -4.006  0.0000E+00  0.4800E+02
     -3.997  0.0000E+00  0.4800E+02
     -3.987  0.0000E+00  0.4800E+02
     -3.978  0.0000E+00  0.4800E+02
     -3.969  0.0000E+00  0.4800E+02
     -3.959  0.0000E+00  0.4800E+02
     -3.950  0.0000E+00  0.4800E+02
     -3.941  0.0000E+00  0.4800E+02
     -3.931  0.0000E+00  0.4800E+02
     -3.922  0.0000E+00  0.4800E+02
     -3.913  0.0000E+00  0.4800E+02
     -3.903  0.0000E+00  0.4800E+02
     -3.894  0.0000E+00  0.4800E+02
     -3.884  0.0000E+00  0.4800E+02
     -3.875  0.0000E+00  0.4800E+02
     -3.866  0.0000E+00  0.4800E+02
     -3.856  0.0000E+00  0.4800E+02
     -3.847  0.0000E+00  0.4800E+02
     -3.838  0.0000E+00  0.4800E+02
     -3.828  0.0000E+00  0.4800E+02
     -3.819  0.0000E+00  0.4800E+02
     -3.809  0.0000E+00  0.4800E+02
     -3.800  0.0000E+00  0.4800E+02
     -3.791  0.0000E+00  0.4800E+02
     -3.781  0.0000E+00  0.4800E+02
     -3.772  0.0000E+00  0.4800E+02
     -3.763  0.0000E+00  0.4800E+02
     -3.753  0.0000E+00  0.4800E+02
     -3.744  0.0000E+00  0.4800E+02
     -3.734  0.0000E+00  0.4800E+02
     -3.725  0.0000E+00  0.4800E+02
     -3.716  0.0000E+00  0.4800E+02
     -3.706  0.0000E+00  0.4800E+02
     -3.697  0.0000E+00  0.4800E+02
     -3.688  0.0000E+00  0.4800E+02
     -3.678  0.0000E+00  0.4800E+02
     -3.669  0.0000E+00  0.4800E+02
     -3.659  0.0000E+00  0.4800E+02
     -3.650  0.0000E+00  0.4800E+02
     -3.641  0.0000E+00  0.4800E+02
     -3.631  0.0000E+00  0.4800E+02
     -3.622  0.0000E+00  0.4800E+02
     -3.612  0.0000E+00  0.4800E+02
     -3.603  0.0000E+00  0.4800E+02
     -3.594  0.0000E+00  0.4800E+02
     -3.584  0.0000E+00  0.4800E+02
     -3.575  0.0000E+00  0.4800E+02
     -3.566  0.0000E+00  0.4800E+02
     -3.556  0.0000E+00  0.4800E+02
     -3.547  0.0000E+00  0.4800E+02
     -3.538  0.0000E+00  0.4800E+02
     -3.528  0.0000E+00  0.4800E+02
     -3.519  0.0000E+00  0.4800E+02
     -3.509  0.0000E+00  0.4800E+02
     -3.500  0.0000E+00  0.4800E+02
     -3.491  0.0000E+00  0.4800E+02
     -3.481  0.0000E+00  0.4800E+02
     -3.472  0.0000E+00  0.4800E+02
     -3.463  0.0000E+00  0.4800E+02
     -3.453  0.0000E+00  0.4800E+02
     -3.444  0.0000E+00  0.4800E+02
     -3.434  0.0000E+00  0.4800E+02
     -3.425  0.0000E+00  0.4800E+02
     -3.416  0.0000E+00  0.4800E+02
     -3.406  0.0000E+00  0.4800E+02
     -3.397  0.0000E+00  0.4800E+02
     -3.388  0.0000E+00  0.4800E+02
     -3.378  0.0000E+00  0.4800E+02
     -3.369  0.0000E+00  0.4800E+02
     -3.359  0.0000E+00  0.4800E+02
     -3.350  0.0000E+00  0.4800E+02
     -3.341  0.0000E+00  0.4800E+02
     -3.331  0.0000E+00  0.4800E+02
     -3.322  0.0000E+00  0.4800E+02
     -3.312  0.0000E+00  0.4800E+02
     -3.303  0.0000E+00  0.4800E+02
     -3.294  0.0000E+00  0.4800E+02
     -3.284  0.0000E+00  0.4800E+02
     -3.275  0.0000E+00  0.4800E+02
     -3.266  0.0000E+00  0.4800E+02
     -3.256  0.0000E+00  0.4800E+02
     -3.247  0.0000E+00  0.4800E+02
     -3.237  0.0000E+00  0.4800E+02
     -3.228  0.0000E+00  0.4800E+02
     -3.219  0.0000E+00  0.4800E+02
     -3.209  0.0000E+00  0.4800E+02
     -3.200  0.0000E+00  0.4800E+02
     -3.191  0.0000E+00  0.4800E+02
     -3.181  0.0000E+00  0.4800E+02
     -3.172  0.0000E+00  0.4800E+02
     -3.163  0.0000E+00  0.4800E+02
     -3.153  0.0000E+00  0.4800E+02
     -3.144  0.0000E+00  0.4800E+02
     -3.134  0.0000E+00  0.4800E+02
     -3.125  0.0000E+00  0.4800E+02
     -3.116  0.0000E+00  0.4800E+02
     -3.106  0.0000E+00  0.4800E+02
     -3.097  0.0000E+00  0.4800E+02
     -3.088  0.0000E+00  0.4800E+02
     -3.078  0.0000E+00  0.4800E+02
     -3.069  0.0000E+00  0.4800E+02
     -3.059  0.0000E+00  0.4800E+02
     -3.050  0.0000E+00  0.4800E+02
     -3.041  0.0000E+00  0.4800E+02
     -3.031  0.0000E+00  0.4800E+02
     -3.022  0.0000E+00  0.4800E+02
     -3.013  0.0000E+00  0.4800E+02
     -3.003  0.0000E+00  0.4800E+02
     -2.994  0.0000E+00  0.4800E+02
     -2.984  0.0000E+00  0.4800E+02
     -2.975  0.0000E+00  0.4800E+02
     -2.966  0.0000E+00  0.4800E+02
     -2.956  0.0000E+00  0.4800E+02
     -2.947  0.0000E+00  0.4800E+02
     -2.938  0.0000E+00  0.4800E+02
     -2.928  0.0000E+00  0.4800E+02
     -2.919  0.0000E+00  0.4800E+02
     -2.909  0.0000E+00  0.4800E+02
     -2.900  0.0000E+00  0.4800E+02
     -2.891  0.0000E+00  0.4800E+02
     -2.881  0.0000E+00  0.4800E+02
     -2.872  0.0000E+00  0.4800E+02
     -2.863  0.0000E+00  0.4800E+02
     -2.853  0.0000E+00  0.4800E+02
     -2.844  0.0000E+00  0.4800E+02
     -2.834  0.0000E+00  0.4800E+02
     -2.825  0.0000E+00  0.4800E+02
     -2.816  0.0000E+00  0.4800E+02
     -2.806  0.0000E+00  0.4800E+02
     -2.797  0.0000E+00  0.4800E+02
     -2.788  0.0000E+00  0.4800E+02
     -2.778  0.0000E+00  0.4800E+02
     -2.769  0.0000E+00  0.4800E+02
     -2.759  0.0000E+00  0.4800E+02
     -2.750  0.0000E+00  0.4800E+02
     -2.741  0.0000E+00  0.4800E+02
     -2.731  0.0000E+00  0.4800E+02
     -2.722  0.0000E+00  0.4800E+02
     -2.712  0.0000E+00  0.4800E+02
     -2.703  0.0000E+00  0.4800E+02
     -2.694  0.0000E+00  0.4800E+02
     -2.684  0.0000E+00  0.4800E+02
     -2.675  0.0000E+00  0.4800E+02
     -2.666  0.0000E+00  0.4800E+02
     -2.656  0.0000E+00  0.4800E+02
     -2.647  0.0000E+00  0.4800E+02
     -2.638  0.0000E+00  0.4800E+02
     -2.628  0.0000E+00  0.4800E+02
     -2.619  0.0000E+00  0.4800E+02
     -2.609  0.0000E+00  0.4800E+02
     -2.600  0.0000E+00  0.4800E+02
     -2.591  0.0000E+00  0.4800E+02
     -2.581  0.0000E+00  0.4800E+02
     -2.572  0.0000E+00  0.4800E+02
     -2.562  0.0000E+00  0.4800E+02
     -2.553  0.0000E+00  0.4800E+02
     -2.544  0.0000E+00  0.4800E+02
     -2.534  0.0000E+00  0.4800E+02
     -2.525  0.0000E+00  0.4800E+02
     -2.516  0.0000E+00  0.4800E+02
     -2.506  0.0000E+00  0.4800E+02
     -2.497  0.0000E+00  0.4800E+02
     -2.488  0.0000E+00  0.4800E+02
     -2.478  0.0000E+00  0.4800E+02
     -2.469  0.0000E+00  0.4800E+02
     -2.459  0.0000E+00  0.4800E+02
     -2.450  0.0000E+00  0.4800E+02
     -2.441  0.0000E+00  0.4800E+02
     -2.431  0.0000E+00  0.4800E+02
     -2.422  0.0000E+00  0.4800E+02
     -2.413  0.0000E+00  0.4800E+02
     -2.403  0.0000E+00  0.4800E+02
     -2.394  0.0000E+00  0.4800E+02
     -2.384  0.0000E+00  0.4800E+02
     -2.375  0.0000E+00  0.4800E+02
     -2.366  0.0000E+00  0.4800E+02
     -2.356  0.0000E+00  0.4800E+02
     -2.347  0.0000E+00  0.4800E+02
     -2.337  0.0000E+00  0.4800E+02
     -2.328  0.0000E+00  0.4800E+02
     -2.319  0.0000E+00  0.4800E+02
     -2.309  0.0000E+00  0.4800E+02
     -2.300  0.0000E+00  0.4800E+02
     -2.291  0.0000E+00  0.4800E+02
     -2.281  0.0000E+00  0.4800E+02
     -2.272  0.0000E+00  0.4800E+02
     -2.263  0.0000E+00  0.4800E+02
     -2.253  0.0000E+00  0.4800E+02
     -2.244  0.0000E+00  0.4800E+02
     -2.234  0.0000E+00  0.4800E+02
     -2.225  0.0000E+00  0.4800E+02
     -2.216  0.0000E+00  0.4800E+02
     -2.206  0.0000E+00  0.4800E+02
     -2.197  0.0000E+00  0.4800E+02
     -2.188  0.0000E+00  0.4800E+02
     -2.178  0.0000E+00  0.4800E+02
     -2.169  0.0000E+00  0.4800E+02
     -2.159  0.0000E+00  0.4800E+02
     -2.150  0.0000E+00  0.4800E+02
     -2.141  0.0000E+00  0.4800E+02
     -2.131  0.0000E+00  0.4800E+02
     -2.122  0.0000E+00  0.4800E+02
     -2.113  0.0000E+00  0.4800E+02
     -2.103  0.0000E+00  0.4800E+02
     -2.094  0.0000E+00  0.4800E+02
     -2.084  0.0000E+00  0.4800E+02
     -2.075  0.0000E+00  0.4800E+02
     -2.066  0.0000E+00  0.4800E+02
     -2.056  0.0000E+00  0.4800E+02
     -2.047  0.0000E+00  0.4800E+02
     -2.038  0.0000E+00  0.4800E+02
     -2.028  0.0000E+00  0.4800E+02
     -2.019  0.0000E+00  0.4800E+02
     -2.009  0.0000E+00  0.4800E+02
     -2.000  0.0000E+00  0.4800E+02
     -1.991  0.0000E+00  0.4800E+02
     -1.981  0.0000E+00  0.4800E+02
     -1.972  0.0000E+00  0.4800E+02
     -1.962  0.0000E+00  0.4800E+02
     -1.953  0.0000E+00  0.4800E+02
     -1.944  0.0000E+00  0.4800E+02
     -1.934  0.0000E+00  0.4800E+02
     -1.925  0.0000E+00  0.4800E+02
     -1.916  0.0000E+00  0.4800E+02
     -1.906  0.0000E+00  0.4800E+02
     -1.897  0.0000E+00  0.4800E+02
     -1.888  0.0000E+00  0.4800E+02
     -1.878  0.0000E+00  0.4800E+02
     -1.869  0.0000E+00  0.4800E+02
     -1.859  0.0000E+00  0.4800E+02
     -1.850  0.0000E+00  0.4800E+02
     -1.841  0.0000E+00  0.4800E+02
     -1.831  0.0000E+00  0.4800E+02
     -1.822  0.0000E+00  0.4800E+02
     -1.812  0.0000E+00  0.4800E+02
     -1.803  0.0000E+00  0.4800E+02
     -1.794  0.0000E+00  0.4800E+02
     -1.784  0.0000E+00  0.4800E+02
     -1.775  0.0000E+00  0.4800E+02
     -1.766  0.0000E+00  0.4800E+02
     -1.756  0.0000E+00  0.4800E+02
     -1.747  0.0000E+00  0.4800E+02
     -1.738  0.0000E+00  0.4800E+02
     -1.728  0.0000E+00  0.4800E+02
     -1.719  0.0000E+00  0.4800E+02
     -1.709  0.0000E+00  0.4800E+02
     -1.700  0.0000E+00  0.4800E+02
     -1.691  0.0000E+00  0.4800E+02
     -1.681  0.0000E+00  0.4800E+02
     -1.672  0.0000E+00  0.4800E+02
     -1.663  0.0000E+00  0.4800E+02
     -1.653  0.0000E+00  0.4800E+02
     -1.644  0.0000E+00  0.4800E+02
     -1.634  0.0000E+00  0.4800E+02
     -1.625  0.0000E+00  0.4800E+02
     -1.616  0.0000E+00  0.4800E+02
     -1.606  0.0000E+00  0.4800E+02
     -1.597  0.0000E+00  0.4800E+02
     -1.587  0.0000E+00  0.4800E+02
     -1.578  0.0000E+00  0.4800E+02
     -1.569  0.0000E+00  0.4800E+02
     -1.559  0.0000E+00  0.4800E+02
     -1.550  0.0000E+00  0.4800E+02
     -1.541  0.0000E+00  0.4800E+02
     -1.531  0.0000E+00  0.4800E+02
     -1.522  0.0000E+00  0.4800E+02
     -1.513  0.0000E+00  0.4800E+02
     -1.503  0.0000E+00  0.4800E+02
     -1.494  0.0000E+00  0.4800E+02
     -1.484  0.0000E+00  0.4800E+02
     -1.475  0.0000E+00  0.4800E+02
     -1.466  0.0000E+00  0.4800E+02
     -1.456  0.0000E+00  0.4800E+02
     -1.447  0.0000E+00  0.4800E+02
     -1.438  0.0000E+00  0.4800E+02
     -1.428  0.0000E+00  0.4800E+02
     -1.419  0.0000E+00  0.4800E+02
     -1.409  0.0000E+00  0.4800E+02
     -1.400  0.0000E+00  0.4800E+02
     -1.391  0.0000E+00  0.4800E+02
     -1.381  0.0000E+00  0.4800E+02
     -1.372  0.0000E+00  0.4800E+02
     -1.363  0.0000E+00  0.4800E+02
     -1.353  0.0000E+00  0.4800E+02
     -1.344  0.0000E+00  0.4800E+02
     -1.334  0.1163E+03  0.4868E+02
     -1.325  0.1962E+02  0.4890E+02
     -1.316  0.1962E+02  0.4908E+02
     -1.306  0.1962E+02  0.4926E+02
     -1.297  0.1963E+02  0.4945E+02
     -1.288  0.1963E+02  0.4963E+02
     -1.278  0.1963E+02  0.4982E+02
     -1.269  0.1053E+02  0.4999E+02
     -1.259  0.0000E+00  0.5000E+02
     -1.250  0.2576E+03  0.5019E+02
     -1.241  0.9368E+01  0.5075E+02
     -1.231  0.9367E+01  0.5084E+02
     -1.222  0.9366E+01  0.5092E+02
     -1.213  0.9365E+01  0.5101E+02
     -1.203  0.9364E+01  0.5110E+02
     -1.194  0.9363E+01  0.5119E+02
     -1.184  0.9362E+01  0.5128E+02
     -1.175  0.9361E+01  0.5136E+02
     -1.166  0.9360E+01  0.5145E+02
     -1.156  0.9359E+01  0.5154E+02
     -1.147  0.9358E+01  0.5163E+02
     -1.138  0.9357E+01  0.5171E+02
     -1.128  0.9356E+01  0.5180E+02
     -1.119  0.9356E+01  0.5189E+02
     -1.109  0.5590E+01  0.5197E+02
     -1.100  0.0000E+00  0.5200E+02
     -1.091  0.0000E+00  0.5200E+02
     -1.081  0.0000E+00  0.5200E+02
     -1.072  0.0000E+00  0.5200E+02
     -1.062  0.0000E+00  0.5200E+02
     -1.053  0.0000E+00  0.5200E+02
     -1.044  0.0000E+00  0.5200E+02
     -1.034  0.0000E+00  0.5200E+02
     -1.025  0.0000E+00  0.5200E+02
     -1.016  0.0000E+00  0.5200E+02
     -1.006  0.0000E+00  0.5200E+02
     -0.997  0.0000E+00  0.5200E+02
     -0.987  0.0000E+00  0.5200E+02
     -0.978  0.0000E+00  0.5200E+02
     -0.969  0.0000E+00  0.5200E+02
     -0.959  0.0000E+00  0.5200E+02
     -0.950  0.0000E+00  0.5200E+02
     -0.941  0.1486E+02  0.5209E+02
     -0.931  0.1860E+02  0.5226E+02
     -0.922  0.1863E+02  0.5243E+02
     -0.913  0.1865E+02  0.5261E+02
     -0.903  0.1867E+02  0.5278E+02
     -0.894  0.1869E+02  0.5296E+02
     -0.884  0.1872E+02  0.5313E+02
     -0.875  0.1420E+03  0.5336E+02
     -0.866  0.0000E+00  0.5400E+02
     -0.856  0.0000E+00  0.5400E+02
     -0.847  0.0000E+00  0.5400E+02
     -0.838  0.0000E+00  0.5400E+02
     -0.828  0.0000E+00  0.5400E+02
     -0.819  0.0000E+00  0.5400E+02
     -0.809  0.0000E+00  0.5400E+02
     -0.800  0.0000E+00  0.5400E+02
     -0.791  0.0000E+00  0.5400E+02
     -0.781  0.0000E+00  0.5400E+02
     -0.772  0.0000E+00  0.5400E+02
     -0.763  0.0000E+00  0.5400E+02
     -0.753  0.0000E+00  0.5400E+02
     -0.744  0.0000E+00  0.5400E+02
     -0.734  0.0000E+00  0.5400E+02
     -0.725  0.0000E+00  0.5400E+02
     -0.716  0.0000E+00  0.5400E+02
     -0.706  0.0000E+00  0.5400E+02
     -0.697  0.0000E+00  0.5400E+02
     -0.688  0.0000E+00  0.5400E+02
     -0.678  0.0000E+00  0.5400E+02
     -0.669  0.0000E+00  0.5400E+02
     -0.659  0.0000E+00  0.5400E+02
     -0.650  0.0000E+00  0.5400E+02
     -0.641  0.0000E+00  0.5400E+02
     -0.631  0.0000E+00  0.5400E+02
     -0.622  0.0000E+00  0.5400E+02
     -0.612  0.0000E+00  0.5400E+02
     -0.603  0.0000E+00  0.5400E+02
     -0.594  0.0000E+00  0.5400E+02
     -0.584  0.0000E+00  0.5400E+02
     -0.575  0.0000E+00  0.5400E+02
     -0.566  0.0000E+00  0.5400E+02
     -0.556  0.0000E+00  0.5400E+02
     -0.547  0.0000E+00  0.5400E+02
     -0.538  0.0000E+00  0.5400E+02
     -0.528  0.0000E+00  0.5400E+02
     -0.519  0.0000E+00  0.5400E+02
     -0.509  0.0000E+00  0.5400E+02
     -0.500  0.0000E+00  0.5400E+02
     -0.491  0.0000E+00  0.5400E+02
     -0.481  0.0000E+00  0.5400E+02
     -0.472  0.0000E+00  0.5400E+02
     -0.463  0.0000E+00  0.5400E+02
     -0.453  0.0000E+00  0.5400E+02
     -0.444  0.0000E+00  0.5400E+02
     -0.434  0.0000E+00  0.5400E+02
     -0.425  0.0000E+00  0.5400E+02
     -0.416  0.0000E+00  0.5400E+02
     -0.406  0.0000E+00  0.5400E+02
     -0.397  0.0000E+00  0.5400E+02
     -0.388  0.0000E+00  0.5400E+02
     -0.378  0.0000E+00  0.5400E+02
     -0.369  0.0000E+00  0.5400E+02
     -0.359  0.0000E+00  0.5400E+02
     -0.350  0.0000E+00  0.5400E+02
     -0.341  0.0000E+00  0.5400E+02
     -0.331  0.0000E+00  0.5400E+02
     -0.322  0.0000E+00  0.5400E+02
     -0.312  0.0000E+00  0.5400E+02
     -0.303  0.0000E+00  0.5400E+02
     -0.294  0.0000E+00  0.5400E+02
     -0.284  0.0000E+00  0.5400E+02
     -0.275  0.0000E+00  0.5400E+02
     -0.266  0.0000E+00  0.5400E+02
     -0.256  0.0000E+00  0.5400E+02
     -0.247  0.0000E+00  0.5400E+02
     -0.237  0.0000E+00  0.5400E+02
     -0.228  0.0000E+00  0.5400E+02
     -0.219  0.0000E+00  0.5400E+02
     -0.209  0.0000E+00  0.5400E+02
     -0.200  0.0000E+00  0.5400E+02
     -0.191  0.0000E+00  0.5400E+02
     -0.181  0.0000E+00  0.5400E+02
     -0.172  0.0000E+00  0.5400E+02
     -0.163  0.0000E+00  0.5400E+02
     -0.153  0.0000E+00  0.5400E+02
     -0.144  0.0000E+00  0.5400E+02
     -0.134  0.0000E+00  0.5400E+02
     -0.125  0.0000E+00  0.5400E+02
     -0.116  0.0000E+00  0.5400E+02
     -0.106  0.0000E+00  0.5400E+02
     -0.097  0.0000E+00  0.5400E+02
     -0.088  0.0000E+00  0.5400E+02
     -0.078  0.1079E+03  0.5475E+02
     -0.069  0.3705E+02  0.5517E+02
     -0.059  0.5053E+02  0.5550E+02
     -0.050  0.8749E+02  0.5619E+02
     -0.041  0.5994E+02  0.5688E+02
     -0.031  0.2954E+02  0.5730E+02
     -0.022  0.2470E+02  0.5756E+02
     -0.013  0.1986E+02  0.5777E+02
     -0.003  0.1503E+02  0.5793E+02
      0.006  0.0000E+00  0.5800E+02
      0.016  0.0000E+00  0.5800E+02
      0.025  0.0000E+00  0.5800E+02
      0.034  0.2087E+03  0.5885E+02
      0.044  0.0000E+00  0.6000E+02
      0.053  0.1179E+02  0.6005E+02
      0.062  0.1613E+02  0.6018E+02
      0.072  0.2047E+02  0.6035E+02
      0.081  0.2481E+02  0.6056E+02
      0.091  0.2868E+02  0.6081E+02
      0.100  0.5250E+02  0.6116E+02
      0.109  0.8894E+02  0.6182E+02
      0.119  0.0000E+00  0.6200E+02
      0.128  0.0000E+00  0.6200E+02
      0.138  0.0000E+00  0.6200E+02
      0.147  0.0000E+00  0.6200E+02
      0.156  0.0000E+00  0.6200E+02
      0.166  0.0000E+00  0.6200E+02
      0.175  0.0000E+00  0.6200E+02
      0.184  0.0000E+00  0.6200E+02
      0.194  0.2866E+02  0.6217E+02
      0.203  0.4627E+02  0.6252E+02
      0.212  0.5603E+02  0.6301E+02
      0.222  0.0000E+00  0.6400E+02
      0.231  0.0000E+00  0.6400E+02
      0.241  0.0000E+00  0.6400E+02
      0.250  0.0000E+00  0.6400E+02
      0.259  0.0000E+00  0.6400E+02
      0.269  0.0000E+00  0.6400E+02
      0.278  0.0000E+00  0.6400E+02
      0.287  0.0000E+00  0.6400E+02
      0.297  0.0000E+00  0.6400E+02
      0.306  0.0000E+00  0.6400E+02
      0.316  0.0000E+00  0.6400E+02
      0.325  0.0000E+00  0.6400E+02
      0.334  0.0000E+00  0.6400E+02
      0.344  0.0000E+00  0.6400E+02
      0.353  0.0000E+00  0.6400E+02
      0.362  0.0000E+00  0.6400E+02
      0.372  0.0000E+00  0.6400E+02
      0.381  0.0000E+00  0.6400E+02
      0.391  0.0000E+00  0.6400E+02
      0.400  0.0000E+00  0.6400E+02
      0.409  0.0000E+00  0.6400E+02
      0.419  0.0000E+00  0.6400E+02
      0.428  0.0000E+00  0.6400E+02
      0.438  0.0000E+00  0.6400E+02
      0.447  0.0000E+00  0.6400E+02
      0.456  0.0000E+00  0.6400E+02
      0.466  0.0000E+00  0.6400E+02
      0.475  0.0000E+00  0.6400E+02
      0.484  0.0000E+00  0.6400E+02
      0.494  0.0000E+00  0.6400E+02
      0.503  0.0000E+00  0.6400E+02
      0.513  0.0000E+00  0.6400E+02
      0.522  0.0000E+00  0.6400E+02
      0.531  0.0000E+00  0.6400E+02
      0.541  0.0000E+00  0.6400E+02
      0.550  0.0000E+00  0.6400E+02
      0.559  0.0000E+00  0.6400E+02
      0.569  0.0000E+00  0.6400E+02
      0.578  0.0000E+00  0.6400E+02
      0.587  0.0000E+00  0.6400E+02
      0.597  0.0000E+00  0.6400E+02
      0.606  0.0000E+00  0.6400E+02
      0.616  0.0000E+00  0.6400E+02
      0.625  0.0000E+00  0.6400E+02
      0.634  0.0000E+00  0.6400E+02
      0.644  0.0000E+00  0.6400E+02
      0.653  0.0000E+00  0.6400E+02
      0.662  0.0000E+00  0.6400E+02
      0.672  0.0000E+00  0.6400E+02
      0.681  0.0000E+00  0.6400E+02
      0.691  0.0000E+00  0.6400E+02
      0.700  0.0000E+00  0.6400E+02
      0.709  0.0000E+00  0.6400E+02
      0.719  0.0000E+00  0.6400E+02
      0.728  0.0000E+00  0.6400E+02
      0.737  0.0000E+00  0.6400E+02
      0.747  0.0000E+00  0.6400E+02
      0.756  0.0000E+00  0.6400E+02
      0.766  0.0000E+00  0.6400E+02
      0.775  0.0000E+00  0.6400E+02
      0.784  0.0000E+00  0.6400E+02
      0.794  0.0000E+00  0.6400E+02
      0.803  0.0000E+00  0.6400E+02
      0.812  0.0000E+00  0.6400E+02
      0.822  0.0000E+00  0.6400E+02
      0.831  0.0000E+00  0.6400E+02
      0.841  0.0000E+00  0.6400E+02
      0.850  0.0000E+00  0.6400E+02
      0.859  0.0000E+00  0.6400E+02
      0.869  0.0000E+00  0.6400E+02
      0.878  0.0000E+00  0.6400E+02
      0.888  0.0000E+00  0.6400E+02
      0.897  0.0000E+00  0.6400E+02
      0.906  0.0000E+00  0.6400E+02
      0.916  0.0000E+00  0.6400E+02
      0.925  0.0000E+00  0.6400E+02
      0.934  0.0000E+00  0.6400E+02
      0.944  0.0000E+00  0.6400E+02
      0.953  0.0000E+00  0.6400E+02
      0.962  0.0000E+00  0.6400E+02
      0.972  0.0000E+00  0.6400E+02
      0.981  0.0000E+00  0.6400E+02
      0.991  0.0000E+00  0.6400E+02
      1.000  0.0000E+00  0.6400E+02
      1.009  0.0000E+00  0.6400E+02
      1.019  0.0000E+00  0.6400E+02
      1.028  0.0000E+00  0.6400E+02
      1.037  0.0000E+00  0.6400E+02
      1.047  0.0000E+00  0.6400E+02
      1.056  0.0000E+00  0.6400E+02
      1.066  0.0000E+00  0.6400E+02
      1.075  0.0000E+00  0.6400E+02
      1.084  0.0000E+00  0.6400E+02
      1.094  0.0000E+00  0.6400E+02
      1.103  0.0000E+00  0.6400E+02
      1.112  0.0000E+00  0.6400E+02
      1.122  0.0000E+00  0.6400E+02
      1.131  0.0000E+00  0.6400E+02
      1.141  0.0000E+00  0.6400E+02
      1.150  0.0000E+00  0.6400E+02
      1.159  0.0000E+00  0.6400E+02
      1.169  0.0000E+00  0.6400E+02
      1.178  0.0000E+00  0.6400E+02
      1.188  0.0000E+00  0.6400E+02
      1.197  0.0000E+00  0.6400E+02
      1.206  0.0000E+00  0.6400E+02
      1.216  0.0000E+00  0.6400E+02
      1.225  0.0000E+00  0.6400E+02
      1.234  0.0000E+00  0.6400E+02
      1.244  0.0000E+00  0.6400E+02
      1.253  0.0000E+00  0.6400E+02
      1.263  0.0000E+00  0.6400E+02
      1.272  0.0000E+00  0.6400E+02
      1.281  0.0000E+00  0.6400E+02
      1.291  0.0000E+00  0.6400E+02
      1.300  0.0000E+00  0.6400E+02
      1.309  0.0000E+00  0.6400E+02
      1.319  0.0000E+00  0.6400E+02
      1.328  0.0000E+00  0.6400E+02
      1.337  0.0000E+00  0.6400E+02
      1.347  0.0000E+00  0.6400E+02
      1.356  0.0000E+00  0.6400E+02
      1.366  0.0000E+00  0.6400E+02
      1.375  0.0000E+00  0.6400E+02
      1.384  0.0000E+00  0.6400E+02
      1.394  0.0000E+00  0.6400E+02
      1.403  0.0000E+00  0.6400E+02
      1.412  0.0000E+00  0.6400E+02
      1.422  0.0000E+00  0.6400E+02
      1.431  0.0000E+00  0.6400E+02
      1.441  0.0000E+00  0.6400E+02
      1.450  0.0000E+00  0.6400E+02
      1.459  0.0000E+00  0.6400E+02
      1.469  0.0000E+00  0.6400E+02
      1.478  0.0000E+00  0.6400E+02
      1.487  0.0000E+00  0.6400E+02
      1.497  0.0000E+00  0.6400E+02
      1.506  0.0000E+00  0.6400E+02
      1.516  0.0000E+00  0.6400E+02
      1.525  0.0000E+00  0.6400E+02
      1.534  0.0000E+00  0.6400E+02
      1.544  0.0000E+00  0.6400E+02
      1.553  0.0000E+00  0.6400E+02
      1.562  0.0000E+00  0.6400E+02
      1.572  0.0000E+00  0.6400E+02
      1.581  0.0000E+00  0.6400E+02
      1.591  0.0000E+00  0.6400E+02
      1.600  0.0000E+00  0.6400E+02
      1.609  0.0000E+00  0.6400E+02
      1.619  0.0000E+00  0.6400E+02
      1.628  0.0000E+00  0.6400E+02
      1.638  0.0000E+00  0.6400E+02
      1.647  0.0000E+00  0.6400E+02
      1.656  0.0000E+00  0.6400E+02
      1.666  0.0000E+00  0.6400E+02
      1.675  0.0000E+00  0.6400E+02
      1.684  0.0000E+00  0.6400E+02
      1.694  0.0000E+00  0.6400E+02
      1.703  0.0000E+00  0.6400E+02
      1.712  0.0000E+00  0.6400E+02
      1.722  0.0000E+00  0.6400E+02
      1.731  0.0000E+00  0.6400E+02
      1.741  0.0000E+00  0.6400E+02
      1.750  0.0000E+00  0.6400E+02
      1.759  0.0000E+00  0.6400E+02
      1.769  0.0000E+00  0.6400E+02
      1.778  0.0000E+00  0.6400E+02
      1.787  0.0000E+00  0.6400E+02
      1.797  0.0000E+00  0.6400E+02
      1.806  0.0000E+00  0.6400E+02
      1.816  0.0000E+00  0.6400E+02
      1.825  0.0000E+00  0.6400E+02
      1.834  0.0000E+00  0.6400E+02
      1.844  0.0000E+00  0.6400E+02
      1.853  0.0000E+00  0.6400E+02
      1.862  0.0000E+00  0.6400E+02
      1.872  0.0000E+00  0.6400E+02
      1.881  0.0000E+00  0.6400E+02
      1.891  0.0000E+00  0.6400E+02
      1.900  0.0000E+00  0.6400E+02
      1.909  0.0000E+00  0.6400E+02
      1.919  0.0000E+00  0.6400E+02
      1.928  0.0000E+00  0.6400E+02
      1.938  0.0000E+00  0.6400E+02
      1.947  0.0000E+00  0.6400E+02
      1.956  0.0000E+00  0.6400E+02
      1.966  0.0000E+00  0.6400E+02
      1.975  0.0000E+00  0.6400E+02
      1.984  0.0000E+00  0.6400E+02
      1.994  0.0000E+00  0.6400E+02
      2.003  0.0000E+00  0.6400E+02
      2.013  0.0000E+00  0.6400E+02
      2.022  0.0000E+00  0.6400E+02
      2.031  0.0000E+00  0.6400E+02
      2.041  0.0000E+00  0.6400E+02
      2.050  0.0000E+00  0.6400E+02
      2.059  0.0000E+00  0.6400E+02
      2.069  0.0000E+00  0.6400E+02
      2.078  0.0000E+00  0.6400E+02
      2.087  0.0000E+00  0.6400E+02
      2.097  0.0000E+00  0.6400E+02
      2.106  0.0000E+00  0.6400E+02
      2.116  0.0000E+00  0.6400E+02
      2.125  0.0000E+00  0.6400E+02
      2.134  0.0000E+00  0.6400E+02
      2.144  0.0000E+00  0.6400E+02
      2.153  0.0000E+00  0.6400E+02
      2.162  0.0000E+00  0.6400E+02
      2.172  0.0000E+00  0.6400E+02
      2.181  0.0000E+00  0.6400E+02
      2.191  0.0000E+00  0.6400E+02
      2.200  0.0000E+00  0.6400E+02
      2.209  0.0000E+00  0.6400E+02
      2.219  0.0000E+00  0.6400E+02
      2.228  0.0000E+00  0.6400E+02
      2.237  0.0000E+00  0.6400E+02
      2.247  0.0000E+00  0.6400E+02
      2.256  0.0000E+00  0.6400E+02
      2.266  0.0000E+00  0.6400E+02
      2.275  0.0000E+00  0.6400E+02
      2.284  0.0000E+00  0.6400E+02
      2.294  0.0000E+00  0.6400E+02
      2.303  0.0000E+00  0.6400E+02
      2.312  0.0000E+00  0.6400E+02
      2.322  0.0000E+00  0.6400E+02
      2.331  0.0000E+00  0.6400E+02
      2.341  0.0000E+00  0.6400E+02
      2.350  0.0000E+00  0.6400E+02
      2.359  0.0000E+00  0.6400E+02
      2.369  0.0000E+00  0.6400E+02
      2.378  0.0000E+00  0.6400E+02
      2.387  0.0000E+00  0.6400E+02
      2.397  0.0000E+00  0.6400E+02
      2.406  0.0000E+00  0.6400E+02
      2.416  0.0000E+00  0.6400E+02
      2.425  0.0000E+00  0.6400E+02
      2.434  0.0000E+00  0.6400E+02
      2.444  0.0000E+00  0.6400E+02
      2.453  0.0000E+00  0.6400E+02
      2.462  0.0000E+00  0.6400E+02
      2.472  0.0000E+00  0.6400E+02
      2.481  0.0000E+00  0.6400E+02
      2.491  0.0000E+00  0.6400E+02
      2.500  0.0000E+00  0.6400E+02
      2.509  0.0000E+00  0.6400E+02
      2.519  0.0000E+00  0.6400E+02
      2.528  0.0000E+00  0.6400E+02
      2.537  0.0000E+00  0.6400E+02
      2.547  0.0000E+00  0.6400E+02
      2.556  0.0000E+00  0.6400E+02
      2.566  0.0000E+00  0.6400E+02
      2.575  0.0000E+00  0.6400E+02
      2.584  0.0000E+00  0.6400E+02
      2.594  0.0000E+00  0.6400E+02
      2.603  0.0000E+00  0.6400E+02
      2.612  0.0000E+00  0.6400E+02
      2.622  0.0000E+00  0.6400E+02
      2.631  0.0000E+00  0.6400E+02
      2.641  0.0000E+00  0.6400E+02
      2.650  0.0000E+00  0.6400E+02
      2.659  0.0000E+00  0.6400E+02
      2.669  0.0000E+00  0.6400E+02
      2.678  0.0000E+00  0.6400E+02
      2.688  0.0000E+00  0.6400E+02
      2.697  0.0000E+00  0.6400E+02
      2.706  0.0000E+00  0.6400E+02
      2.716  0.0000E+00  0.6400E+02
      2.725  0.0000E+00  0.6400E+02
      2.734  0.0000E+00  0.6400E+02