   2   2   1   0
  0.2327779E+02  0.3007846E-09  0.3007846E-09  0.5941963E-09  0.5000000E-15
  1.000000000000000E-004
  CAR 
 CdIn2S4                                 
     10.00000000     -5.00000000 1601      2.39751354      1.00000000
     -5.000  0.2237E+00  0.2013E+02
     -4.991  0.2245E+00  0.2013E+02
     -4.981  0.2254E+00  0.2014E+02
     -4.972  0.2264E+00  0.2014E+02
     -4.963  0.2275E+00  0.2014E+02
     -4.953  0.2286E+00  0.2014E+02
     -4.944  0.2298E+00  0.2014E+02
     -4.934  0.2309E+00  0.2015E+02
     -4.925  0.2321E+00  0.2015E+02
     -4.916  0.2333E+00  0.2015E+02
     -4.906  0.2345E+00  0.2015E+02
     -4.897  0.2357E+00  0.2015E+02
     -4.888  0.2369E+00  0.2016E+02
     -4.878  0.2381E+00  0.2016E+02
     -4.869  0.2393E+00  0.2016E+02
     -4.859  0.2406E+00  0.2016E+02
     -4.850  0.2418E+00  0.2017E+02
     -4.841  0.2430E+00  0.2017E+02
     -4.831  0.2443E+00  0.2017E+02
     -4.822  0.2456E+00  0.2017E+02
     -4.812  0.2469E+00  0.2018E+02
     -4.803  0.2482E+00  0.2018E+02
     -4.794  0.2509E+00  0.2018E+02
     -4.784  0.2540E+00  0.2018E+02
     -4.775  0.2570E+00  0.2018E+02
     -4.766  0.2599E+00  0.2019E+02
     -4.756  0.2628E+00  0.2019E+02
     -4.747  0.2656E+00  0.2019E+02
     -4.737  0.2683E+00  0.2019E+02
     -4.728  0.2709E+00  0.2020E+02
     -4.719  0.2734E+00  0.2020E+02
     -4.709  0.2758E+00  0.2020E+02
     -4.700  0.2782E+00  0.2020E+02
     -4.691  0.2805E+00  0.2021E+02
     -4.681  0.2827E+00  0.2021E+02
     -4.672  0.2848E+00  0.2021E+02
     -4.662  0.2868E+00  0.2022E+02
     -4.653  0.2888E+00  0.2022E+02
     -4.644  0.2906E+00  0.2022E+02
     -4.634  0.2924E+00  0.2022E+02
     -4.625  0.2940E+00  0.2023E+02
     -4.616  0.2956E+00  0.2023E+02
     -4.606  0.2971E+00  0.2023E+02
     -4.597  0.2985E+00  0.2023E+02
     -4.588  0.2791E+00  0.2024E+02
     -4.578  0.2796E+00  0.2024E+02
     -4.569  0.2801E+00  0.2024E+02
     -4.559  0.2807E+00  0.2025E+02
     -4.550  0.2812E+00  0.2025E+02
     -4.541  0.2818E+00  0.2025E+02
     -4.531  0.2823E+00  0.2025E+02
     -4.522  0.2829E+00  0.2026E+02
     -4.513  0.2834E+00  0.2026E+02
     -4.503  0.2839E+00  0.2026E+02
     -4.494  0.2845E+00  0.2026E+02
     -4.484  0.2850E+00  0.2027E+02
     -4.475  0.2856E+00  0.2027E+02
     -4.466  0.2861E+00  0.2027E+02
     -4.456  0.2866E+00  0.2027E+02
     -4.447  0.2872E+00  0.2028E+02
     -4.438  0.2877E+00  0.2028E+02
     -4.428  0.2882E+00  0.2028E+02
     -4.419  0.2877E+00  0.2029E+02
     -4.409  0.2871E+00  0.2029E+02
     -4.400  0.2864E+00  0.2029E+02
     -4.391  0.2858E+00  0.2029E+02
     -4.381  0.2854E+00  0.2030E+02
     -4.372  0.2854E+00  0.2030E+02
     -4.362  0.2854E+00  0.2030E+02
     -4.353  0.2853E+00  0.2030E+02
     -4.344  0.2853E+00  0.2031E+02
     -4.334  0.2852E+00  0.2031E+02
     -4.325  0.2858E+00  0.2031E+02
     -4.316  0.2877E+00  0.2031E+02
     -4.306  0.2895E+00  0.2032E+02
     -4.297  0.2915E+00  0.2032E+02
     -4.287  0.2935E+00  0.2032E+02
     -4.278  0.2955E+00  0.2033E+02
     -4.269  0.2976E+00  0.2033E+02
     -4.259  0.2997E+00  0.2033E+02
     -4.250  0.3020E+00  0.2033E+02
     -4.241  0.3043E+00  0.2034E+02
     -4.231  0.3067E+00  0.2034E+02
     -4.222  0.3092E+00  0.2034E+02
     -4.213  0.3117E+00  0.2035E+02
     -4.203  0.3143E+00  0.2035E+02
     -4.194  0.3169E+00  0.2035E+02
     -4.184  0.3196E+00  0.2035E+02
     -4.175  0.3220E+00  0.2036E+02
     -4.166  0.3244E+00  0.2036E+02
     -4.156  0.3268E+00  0.2036E+02
     -4.147  0.3293E+00  0.2037E+02
     -4.138  0.3319E+00  0.2037E+02
     -4.128  0.3346E+00  0.2037E+02
     -4.119  0.3373E+00  0.2038E+02
     -4.109  0.3178E+00  0.2038E+02
     -4.100  0.3182E+00  0.2038E+02
     -4.091  0.3186E+00  0.2038E+02
     -4.081  0.3190E+00  0.2039E+02
     -4.072  0.3195E+00  0.2039E+02
     -4.062  0.3199E+00  0.2039E+02
     -4.053  0.3204E+00  0.2040E+02
     -4.044  0.3209E+00  0.2040E+02
     -4.034  0.3214E+00  0.2040E+02
     -4.025  0.3220E+00  0.2041E+02
     -4.016  0.3226E+00  0.2041E+02
     -4.006  0.3232E+00  0.2041E+02
     -3.997  0.3239E+00  0.2041E+02
     -3.987  0.3246E+00  0.2042E+02
     -3.978  0.3254E+00  0.2042E+02
     -3.969  0.3265E+00  0.2042E+02
     -3.959  0.3275E+00  0.2043E+02
     -3.950  0.3286E+00  0.2043E+02
     -3.941  0.3297E+00  0.2043E+02
     -3.931  0.3308E+00  0.2044E+02
     -3.922  0.3319E+00  0.2044E+02
     -3.913  0.3330E+00  0.2044E+02
     -3.903  0.3341E+00  0.2045E+02
     -3.894  0.3352E+00  0.2045E+02
     -3.884  0.3363E+00  0.2045E+02
     -3.875  0.3375E+00  0.2046E+02
     -3.866  0.3386E+00  0.2046E+02
     -3.856  0.3398E+00  0.2046E+02
     -3.847  0.3409E+00  0.2046E+02
     -3.838  0.3421E+00  0.2047E+02
     -3.828  0.3433E+00  0.2047E+02
     -3.819  0.3445E+00  0.2047E+02
     -3.809  0.3457E+00  0.2048E+02
     -3.800  0.3469E+00  0.2048E+02
     -3.791  0.3480E+00  0.2048E+02
     -3.781  0.3493E+00  0.2049E+02
     -3.772  0.3505E+00  0.2049E+02
     -3.763  0.3517E+00  0.2049E+02
     -3.753  0.3529E+00  0.2050E+02
     -3.744  0.3541E+00  0.2050E+02
     -3.734  0.3553E+00  0.2050E+02
     -3.725  0.3565E+00  0.2051E+02
     -3.716  0.3578E+00  0.2051E+02
     -3.706  0.3589E+00  0.2051E+02
     -3.697  0.3597E+00  0.2052E+02
     -3.688  0.3605E+00  0.2052E+02
     -3.678  0.3613E+00  0.2052E+02
     -3.669  0.3621E+00  0.2053E+02
     -3.659  0.3628E+00  0.2053E+02
     -3.650  0.3636E+00  0.2053E+02
     -3.641  0.3643E+00  0.2054E+02
     -3.631  0.3650E+00  0.2054E+02
     -3.622  0.3657E+00  0.2054E+02
     -3.612  0.3664E+00  0.2055E+02
     -3.603  0.3671E+00  0.2055E+02
     -3.594  0.3677E+00  0.2055E+02
     -3.584  0.3684E+00  0.2056E+02
     -3.575  0.3690E+00  0.2056E+02
     -3.566  0.3696E+00  0.2057E+02
     -3.556  0.3703E+00  0.2057E+02
     -3.547  0.3709E+00  0.2057E+02
     -3.538  0.3716E+00  0.2058E+02
     -3.528  0.3722E+00  0.2058E+02
     -3.519  0.3729E+00  0.2058E+02
     -3.509  0.3735E+00  0.2059E+02
     -3.500  0.3744E+00  0.2059E+02
     -3.491  0.3753E+00  0.2059E+02
     -3.481  0.3763E+00  0.2060E+02
     -3.472  0.3772E+00  0.2060E+02
     -3.463  0.3781E+00  0.2060E+02
     -3.453  0.3790E+00  0.2061E+02
     -3.444  0.3799E+00  0.2061E+02
     -3.434  0.3808E+00  0.2061E+02
     -3.425  0.3818E+00  0.2062E+02
     -3.416  0.3827E+00  0.2062E+02
     -3.406  0.3836E+00  0.2063E+02
     -3.397  0.3845E+00  0.2063E+02
     -3.388  0.3855E+00  0.2063E+02
     -3.378  0.3864E+00  0.2064E+02
     -3.369  0.3873E+00  0.2064E+02
     -3.359  0.3882E+00  0.2064E+02
     -3.350  0.3866E+00  0.2065E+02
     -3.341  0.3876E+00  0.2065E+02
     -3.331  0.3885E+00  0.2065E+02
     -3.322  0.3895E+00  0.2066E+02
     -3.312  0.3905E+00  0.2066E+02
     -3.303  0.3915E+00  0.2067E+02
     -3.294  0.3925E+00  0.2067E+02
     -3.284  0.3935E+00  0.2067E+02
     -3.275  0.3945E+00  0.2068E+02
     -3.266  0.3955E+00  0.2068E+02
     -3.256  0.3964E+00  0.2068E+02
     -3.247  0.3972E+00  0.2069E+02
     -3.237  0.3980E+00  0.2069E+02
     -3.228  0.3988E+00  0.2069E+02
     -3.219  0.3996E+00  0.2070E+02
     -3.209  0.4004E+00  0.2070E+02
     -3.200  0.4011E+00  0.2071E+02
     -3.191  0.4019E+00  0.2071E+02
     -3.181  0.4026E+00  0.2071E+02
     -3.172  0.4033E+00  0.2072E+02
     -3.163  0.4040E+00  0.2072E+02
     -3.153  0.4047E+00  0.2072E+02
     -3.144  0.4054E+00  0.2073E+02
     -3.134  0.4060E+00  0.2073E+02
     -3.125  0.4067E+00  0.2074E+02
     -3.116  0.4073E+00  0.2074E+02
     -3.106  0.4079E+00  0.2074E+02
     -3.097  0.4085E+00  0.2075E+02
     -3.088  0.4091E+00  0.2075E+02
     -3.078  0.4098E+00  0.2076E+02
     -3.069  0.4104E+00  0.2076E+02
     -3.059  0.4111E+00  0.2076E+02
     -3.050  0.4118E+00  0.2077E+02
     -3.041  0.4126E+00  0.2077E+02
     -3.031  0.4133E+00  0.2077E+02
     -3.022  0.4141E+00  0.2078E+02
     -3.013  0.4148E+00  0.2078E+02
     -3.003  0.4156E+00  0.2079E+02
     -2.994  0.4163E+00  0.2079E+02
     -2.984  0.4171E+00  0.2079E+02
     -2.975  0.4179E+00  0.2080E+02
     -2.966  0.4186E+00  0.2080E+02
     -2.956  0.4194E+00  0.2081E+02
     -2.947  0.4203E+00  0.2081E+02
     -2.938  0.4211E+00  0.2081E+02
     -2.928  0.4220E+00  0.2082E+02
     -2.919  0.4228E+00  0.2082E+02
     -2.909  0.4237E+00  0.2083E+02
     -2.900  0.4246E+00  0.2083E+02
     -2.891  0.4229E+00  0.2083E+02
     -2.881  0.4236E+00  0.2084E+02
     -2.872  0.4243E+00  0.2084E+02
     -2.863  0.4250E+00  0.2085E+02
     -2.853  0.4257E+00  0.2085E+02
     -2.844  0.4264E+00  0.2085E+02
     -2.834  0.4271E+00  0.2086E+02
     -2.825  0.4278E+00  0.2086E+02
     -2.816  0.4285E+00  0.2087E+02
     -2.806  0.4292E+00  0.2087E+02
     -2.797  0.4299E+00  0.2087E+02
     -2.788  0.4306E+00  0.2088E+02
     -2.778  0.4313E+00  0.2088E+02
     -2.769  0.4320E+00  0.2089E+02
     -2.759  0.4327E+00  0.2089E+02
     -2.750  0.4334E+00  0.2089E+02
     -2.741  0.4341E+00  0.2090E+02
     -2.731  0.4348E+00  0.2090E+02
     -2.722  0.4355E+00  0.2091E+02
     -2.712  0.4362E+00  0.2091E+02
     -2.703  0.4369E+00  0.2091E+02
     -2.694  0.4376E+00  0.2092E+02
     -2.684  0.4383E+00  0.2092E+02
     -2.675  0.4389E+00  0.2093E+02
     -2.666  0.4396E+00  0.2093E+02
     -2.656  0.4403E+00  0.2093E+02
     -2.647  0.4410E+00  0.2094E+02
     -2.638  0.4416E+00  0.2094E+02
     -2.628  0.4423E+00  0.2095E+02
     -2.619  0.4429E+00  0.2095E+02
     -2.609  0.4436E+00  0.2096E+02
     -2.600  0.4443E+00  0.2096E+02
     -2.591  0.4449E+00  0.2096E+02
     -2.581  0.4456E+00  0.2097E+02
     -2.572  0.4462E+00  0.2097E+02
     -2.562  0.4469E+00  0.2098E+02
     -2.553  0.4475E+00  0.2098E+02
     -2.544  0.4482E+00  0.2098E+02
     -2.534  0.4488E+00  0.2099E+02
     -2.525  0.4494E+00  0.2099E+02
     -2.516  0.4501E+00  0.2100E+02
     -2.506  0.4507E+00  0.2100E+02
     -2.497  0.4514E+00  0.2101E+02
     -2.488  0.4521E+00  0.2101E+02
     -2.478  0.4528E+00  0.2101E+02
     -2.469  0.4535E+00  0.2102E+02
     -2.459  0.4543E+00  0.2102E+02
     -2.450  0.4550E+00  0.2103E+02
     -2.441  0.4557E+00  0.2103E+02
     -2.431  0.4565E+00  0.2104E+02
     -2.422  0.4572E+00  0.2104E+02
     -2.413  0.4580E+00  0.2104E+02
     -2.403  0.4587E+00  0.2105E+02
     -2.394  0.4595E+00  0.2105E+02
     -2.384  0.4602E+00  0.2106E+02
     -2.375  0.4610E+00  0.2106E+02
     -2.366  0.4618E+00  0.2107E+02
     -2.356  0.4625E+00  0.2107E+02
     -2.347  0.4633E+00  0.2107E+02
     -2.337  0.4640E+00  0.2108E+02
     -2.328  0.4648E+00  0.2108E+02
     -2.319  0.4655E+00  0.2109E+02
     -2.309  0.4663E+00  0.2109E+02
     -2.300  0.4670E+00  0.2110E+02
     -2.291  0.4678E+00  0.2110E+02
     -2.281  0.4685E+00  0.2111E+02
     -2.272  0.4692E+00  0.2111E+02
     -2.263  0.4698E+00  0.2111E+02
     -2.253  0.4704E+00  0.2112E+02
     -2.244  0.4710E+00  0.2112E+02
     -2.234  0.4716E+00  0.2113E+02
     -2.225  0.4722E+00  0.2113E+02
     -2.216  0.4729E+00  0.2114E+02
     -2.206  0.4736E+00  0.2114E+02
     -2.197  0.4743E+00  0.2114E+02
     -2.188  0.4750E+00  0.2115E+02
     -2.178  0.4757E+00  0.2115E+02
     -2.169  0.4764E+00  0.2116E+02
     -2.159  0.4771E+00  0.2116E+02
     -2.150  0.4778E+00  0.2117E+02
     -2.141  0.4786E+00  0.2117E+02
     -2.131  0.4793E+00  0.2118E+02
     -2.122  0.4800E+00  0.2118E+02
     -2.113  0.4808E+00  0.2119E+02
     -2.103  0.4816E+00  0.2119E+02
     -2.094  0.4823E+00  0.2119E+02
     -2.084  0.4832E+00  0.2120E+02
     -2.075  0.4841E+00  0.2120E+02
     -2.066  0.4849E+00  0.2121E+02
     -2.056  0.4858E+00  0.2121E+02
     -2.047  0.4867E+00  0.2122E+02
     -2.038  0.4876E+00  0.2122E+02
     -2.028  0.4885E+00  0.2123E+02
     -2.019  0.4894E+00  0.2123E+02
     -2.009  0.4903E+00  0.2124E+02
     -2.000  0.4912E+00  0.2124E+02
     -1.991  0.4921E+00  0.2124E+02
     -1.981  0.4930E+00  0.2125E+02
     -1.972  0.4939E+00  0.2125E+02
     -1.962  0.4948E+00  0.2126E+02
     -1.953  0.4958E+00  0.2126E+02
     -1.944  0.4967E+00  0.2127E+02
     -1.934  0.4976E+00  0.2127E+02
     -1.925  0.4985E+00  0.2128E+02
     -1.916  0.4994E+00  0.2128E+02
     -1.906  0.5003E+00  0.2129E+02
     -1.897  0.5012E+00  0.2129E+02
     -1.888  0.5022E+00  0.2130E+02
     -1.878  0.5031E+00  0.2130E+02
     -1.869  0.5040E+00  0.2131E+02
     -1.859  0.5049E+00  0.2131E+02
     -1.850  0.5059E+00  0.2131E+02
     -1.841  0.5068E+00  0.2132E+02
     -1.831  0.5077E+00  0.2132E+02
     -1.822  0.5085E+00  0.2133E+02
     -1.812  0.5093E+00  0.2133E+02
     -1.803  0.5102E+00  0.2134E+02
     -1.794  0.5110E+00  0.2134E+02
     -1.784  0.5118E+00  0.2135E+02
     -1.775  0.5126E+00  0.2135E+02
     -1.766  0.5135E+00  0.2136E+02
     -1.756  0.5143E+00  0.2136E+02
     -1.747  0.5152E+00  0.2137E+02
     -1.738  0.5160E+00  0.2137E+02
     -1.728  0.5168E+00  0.2138E+02
     -1.719  0.5176E+00  0.2138E+02
     -1.709  0.5184E+00  0.2139E+02
     -1.700  0.5189E+00  0.2139E+02
     -1.691  0.5193E+00  0.2140E+02
     -1.681  0.5198E+00  0.2140E+02
     -1.672  0.5203E+00  0.2141E+02
     -1.663  0.5209E+00  0.2141E+02
     -1.653  0.5216E+00  0.2142E+02
     -1.644  0.5223E+00  0.2142E+02
     -1.634  0.5231E+00  0.2143E+02
     -1.625  0.5239E+00  0.2143E+02
     -1.616  0.5247E+00  0.2144E+02
     -1.606  0.5255E+00  0.2144E+02
     -1.597  0.5264E+00  0.2145E+02
     -1.587  0.5273E+00  0.2145E+02
     -1.578  0.5282E+00  0.2146E+02
     -1.569  0.5291E+00  0.2146E+02
     -1.559  0.5300E+00  0.2147E+02
     -1.550  0.5310E+00  0.2147E+02
     -1.541  0.5321E+00  0.2148E+02
     -1.531  0.5331E+00  0.2148E+02
     -1.522  0.5341E+00  0.2149E+02
     -1.513  0.5352E+00  0.2149E+02
     -1.503  0.5363E+00  0.2150E+02
     -1.494  0.5374E+00  0.2150E+02
     -1.484  0.5386E+00  0.2151E+02
     -1.475  0.5396E+00  0.2151E+02
     -1.466  0.5406E+00  0.2152E+02
     -1.456  0.5416E+00  0.2152E+02
     -1.447  0.5427E+00  0.2153E+02
     -1.438  0.5437E+00  0.2153E+02
     -1.428  0.5447E+00  0.2154E+02
     -1.419  0.5457E+00  0.2154E+02
     -1.409  0.5467E+00  0.2155E+02
     -1.400  0.5477E+00  0.2155E+02
     -1.391  0.5487E+00  0.2156E+02
     -1.381  0.5498E+00  0.2156E+02
     -1.372  0.5508E+00  0.2157E+02
     -1.363  0.5518E+00  0.2157E+02
     -1.353  0.5529E+00  0.2158E+02
     -1.344  0.5539E+00  0.2158E+02
     -1.334  0.5549E+00  0.2159E+02
     -1.325  0.5560E+00  0.2159E+02
     -1.316  0.5570E+00  0.2160E+02
     -1.306  0.5581E+00  0.2160E+02
     -1.297  0.5592E+00  0.2161E+02
     -1.288  0.5603E+00  0.2161E+02
     -1.278  0.5614E+00  0.2162E+02
     -1.269  0.5625E+00  0.2162E+02
     -1.259  0.5637E+00  0.2163E+02
     -1.250  0.5648E+00  0.2163E+02
     -1.241  0.5659E+00  0.2164E+02
     -1.231  0.5671E+00  0.2165E+02
     -1.222  0.5682E+00  0.2165E+02
     -1.213  0.5694E+00  0.2166E+02
     -1.203  0.5706E+00  0.2166E+02
     -1.194  0.5717E+00  0.2167E+02
     -1.184  0.5729E+00  0.2167E+02
     -1.175  0.5741E+00  0.2168E+02
     -1.166  0.5753E+00  0.2168E+02
     -1.156  0.5765E+00  0.2169E+02
     -1.147  0.5777E+00  0.2169E+02
     -1.138  0.5789E+00  0.2170E+02
     -1.128  0.5801E+00  0.2170E+02
     -1.119  0.5814E+00  0.2171E+02
     -1.109  0.5827E+00  0.2172E+02
     -1.100  0.5841E+00  0.2172E+02
     -1.091  0.5856E+00  0.2173E+02
     -1.081  0.5870E+00  0.2173E+02
     -1.072  0.5884E+00  0.2174E+02
     -1.062  0.5898E+00  0.2174E+02
     -1.053  0.5909E+00  0.2175E+02
     -1.044  0.5920E+00  0.2175E+02
     -1.034  0.5928E+00  0.2176E+02
     -1.025  0.5935E+00  0.2176E+02
     -1.016  0.5941E+00  0.2177E+02
     -1.006  0.5945E+00  0.2178E+02
     -0.997  0.5947E+00  0.2178E+02
     -0.987  0.5947E+00  0.2179E+02
     -0.978  0.5946E+00  0.2179E+02
     -0.969  0.5944E+00  0.2180E+02
     -0.959  0.5939E+00  0.2180E+02
     -0.950  0.5933E+00  0.2181E+02
     -0.941  0.5928E+00  0.2181E+02
     -0.931  0.5930E+00  0.2182E+02
     -0.922  0.5932E+00  0.2183E+02
     -0.913  0.5933E+00  0.2183E+02
     -0.903  0.5934E+00  0.2184E+02
     -0.894  0.5936E+00  0.2184E+02
     -0.884  0.5937E+00  0.2185E+02
     -0.875  0.5938E+00  0.2185E+02
     -0.866  0.5938E+00  0.2186E+02
     -0.856  0.5939E+00  0.2186E+02
     -0.847  0.5939E+00  0.2187E+02
     -0.838  0.5940E+00  0.2188E+02
     -0.828  0.5940E+00  0.2188E+02
     -0.819  0.5940E+00  0.2189E+02
     -0.809  0.5940E+00  0.2189E+02
     -0.800  0.5939E+00  0.2190E+02
     -0.791  0.5939E+00  0.2190E+02
     -0.781  0.5938E+00  0.2191E+02
     -0.772  0.5938E+00  0.2192E+02
     -0.763  0.5937E+00  0.2192E+02
     -0.753  0.5928E+00  0.2193E+02
     -0.744  0.5927E+00  0.2193E+02
     -0.734  0.5926E+00  0.2194E+02
     -0.725  0.5924E+00  0.2194E+02
     -0.716  0.5923E+00  0.2195E+02
     -0.706  0.5921E+00  0.2195E+02
     -0.697  0.5919E+00  0.2196E+02
     -0.688  0.5917E+00  0.2197E+02
     -0.678  0.5915E+00  0.2197E+02
     -0.669  0.5913E+00  0.2198E+02
     -0.659  0.5911E+00  0.2198E+02
     -0.650  0.5909E+00  0.2199E+02
     -0.641  0.5908E+00  0.2199E+02
     -0.631  0.5907E+00  0.2200E+02
     -0.622  0.5907E+00  0.2200E+02
     -0.612  0.5907E+00  0.2201E+02
     -0.603  0.5907E+00  0.2201E+02
     -0.594  0.5908E+00  0.2202E+02
     -0.584  0.5909E+00  0.2203E+02
     -0.575  0.5910E+00  0.2203E+02
     -0.566  0.5912E+00  0.2204E+02
     -0.556  0.5915E+00  0.2204E+02
     -0.547  0.5918E+00  0.2205E+02
     -0.538  0.5921E+00  0.2205E+02
     -0.528  0.5924E+00  0.2206E+02
     -0.519  0.5928E+00  0.2206E+02
     -0.509  0.5932E+00  0.2207E+02
     -0.500  0.5936E+00  0.2208E+02
     -0.491  0.5940E+00  0.2208E+02
     -0.481  0.5980E+00  0.2209E+02
     -0.472  0.6025E+00  0.2209E+02
     -0.463  0.6069E+00  0.2210E+02
     -0.453  0.6107E+00  0.2210E+02
     -0.444  0.6122E+00  0.2211E+02
     -0.434  0.6136E+00  0.2212E+02
     -0.425  0.6150E+00  0.2212E+02
     -0.416  0.6162E+00  0.2213E+02
     -0.406  0.6175E+00  0.2213E+02
     -0.397  0.6187E+00  0.2214E+02
     -0.388  0.6199E+00  0.2214E+02
     -0.378  0.6211E+00  0.2215E+02
     -0.369  0.6223E+00  0.2216E+02
     -0.359  0.6234E+00  0.2216E+02
     -0.350  0.6245E+00  0.2217E+02
     -0.341  0.6251E+00  0.2217E+02
     -0.331  0.6250E+00  0.2218E+02
     -0.322  0.6256E+00  0.2219E+02
     -0.312  0.6261E+00  0.2219E+02
     -0.303  0.6267E+00  0.2220E+02
     -0.294  0.6273E+00  0.2220E+02
     -0.284  0.6280E+00  0.2221E+02
     -0.275  0.6286E+00  0.2221E+02
     -0.266  0.6292E+00  0.2222E+02
     -0.256  0.6298E+00  0.2223E+02
     -0.247  0.6305E+00  0.2223E+02
     -0.237  0.6311E+00  0.2224E+02
     -0.228  0.6318E+00  0.2224E+02
     -0.219  0.6325E+00  0.2225E+02
     -0.209  0.6331E+00  0.2226E+02
     -0.200  0.6338E+00  0.2226E+02
     -0.191  0.6345E+00  0.2227E+02
     -0.181  0.6352E+00  0.2227E+02
     -0.172  0.6357E+00  0.2228E+02
     -0.163  0.6362E+00  0.2229E+02
     -0.153  0.6367E+00  0.2229E+02
     -0.144  0.6372E+00  0.2230E+02
     -0.134  0.6377E+00  0.2230E+02
     -0.125  0.6382E+00  0.2231E+02
     -0.116  0.6388E+00  0.2232E+02
     -0.106  0.6393E+00  0.2232E+02
     -0.097  0.6399E+00  0.2233E+02
     -0.088  0.6404E+00  0.2233E+02
     -0.078  0.6407E+00  0.2234E+02
     -0.069  0.6408E+00  0.2235E+02
     -0.059  0.6410E+00  0.2235E+02
     -0.050  0.6412E+00  0.2236E+02
     -0.041  0.6416E+00  0.2236E+02
     -0.031  0.6419E+00  0.2237E+02
     -0.022  0.6422E+00  0.2238E+02
     -0.013  0.6426E+00  0.2238E+02
     -0.003  0.6429E+00  0.2239E+02
      0.006  0.6432E+00  0.2239E+02
      0.016  0.6435E+00  0.2240E+02
      0.025  0.6439E+00  0.2241E+02
      0.034  0.6443E+00  0.2241E+02
      0.044  0.6447E+00  0.2242E+02
      0.053  0.6451E+00  0.2242E+02
      0.062  0.6455E+00  0.2243E+02
      0.072  0.6458E+00  0.2244E+02
      0.081  0.6460E+00  0.2244E+02
      0.091  0.6463E+00  0.2245E+02
      0.100  0.6465E+00  0.2245E+02
      0.109  0.6468E+00  0.2246E+02
      0.119  0.6471E+00  0.2247E+02
      0.128  0.6473E+00  0.2247E+02
      0.138  0.6476E+00  0.2248E+02
      0.147  0.6479E+00  0.2248E+02
      0.156  0.6481E+00  0.2249E+02
      0.166  0.6484E+00  0.2250E+02
      0.175  0.6487E+00  0.2250E+02
      0.184  0.6489E+00  0.2251E+02
      0.194  0.6492E+00  0.2252E+02
      0.203  0.6495E+00  0.2252E+02
      0.212  0.6498E+00  0.2253E+02
      0.222  0.6500E+00  0.2253E+02
      0.231  0.6503E+00  0.2254E+02
      0.241  0.6512E+00  0.2255E+02
      0.250  0.6647E+00  0.2255E+02
      0.259  0.6778E+00  0.2256E+02
      0.269  0.6906E+00  0.2256E+02
      0.278  0.7012E+00  0.2257E+02
      0.287  0.7045E+00  0.2258E+02
      0.297  0.7076E+00  0.2258E+02
      0.306  0.7107E+00  0.2259E+02
      0.316  0.7135E+00  0.2260E+02
      0.325  0.7163E+00  0.2260E+02
      0.334  0.7189E+00  0.2261E+02
      0.344  0.7213E+00  0.2262E+02
      0.353  0.7236E+00  0.2262E+02
      0.362  0.7258E+00  0.2263E+02
      0.372  0.7369E+00  0.2264E+02
      0.381  0.7381E+00  0.2265E+02
      0.391  0.7380E+00  0.2265E+02
      0.400  0.7372E+00  0.2266E+02
      0.409  0.7363E+00  0.2267E+02
      0.419  0.7354E+00  0.2267E+02
      0.428  0.7343E+00  0.2268E+02
      0.438  0.7332E+00  0.2269E+02
      0.447  0.7320E+00  0.2269E+02
      0.456  0.7307E+00  0.2270E+02
      0.466  0.7294E+00  0.2271E+02
      0.475  0.7279E+00  0.2271E+02
      0.484  0.7265E+00  0.2272E+02
      0.494  0.7250E+00  0.2273E+02
      0.503  0.7234E+00  0.2273E+02
      0.513  0.7219E+00  0.2274E+02
      0.522  0.7203E+00  0.2275E+02
      0.531  0.7186E+00  0.2275E+02
      0.541  0.7169E+00  0.2276E+02
      0.550  0.7151E+00  0.2277E+02
      0.559  0.7132E+00  0.2277E+02
      0.569  0.7109E+00  0.2278E+02
      0.578  0.7082E+00  0.2279E+02
      0.587  0.7054E+00  0.2279E+02
      0.597  0.7026E+00  0.2280E+02
      0.606  0.6997E+00  0.2281E+02
      0.616  0.6967E+00  0.2281E+02
      0.625  0.6937E+00  0.2282E+02
      0.634  0.6906E+00  0.2283E+02
      0.644  0.6875E+00  0.2283E+02
      0.653  0.6844E+00  0.2284E+02
      0.662  0.6811E+00  0.2285E+02
      0.672  0.6779E+00  0.2285E+02
      0.681  0.6747E+00  0.2286E+02
      0.691  0.6720E+00  0.2287E+02
      0.700  0.6696E+00  0.2287E+02
      0.709  0.6675E+00  0.2288E+02
      0.719  0.6657E+00  0.2288E+02
      0.728  0.6639E+00  0.2289E+02
      0.737  0.6623E+00  0.2290E+02
      0.747  0.6741E+00  0.2290E+02
      0.756  0.6730E+00  0.2291E+02
      0.766  0.6720E+00  0.2292E+02
      0.775  0.6710E+00  0.2292E+02
      0.784  0.6702E+00  0.2293E+02
      0.794  0.6693E+00  0.2293E+02
      0.803  0.6686E+00  0.2294E+02
      0.812  0.6679E+00  0.2295E+02
      0.822  0.6672E+00  0.2295E+02
      0.831  0.6665E+00  0.2296E+02
      0.841  0.6657E+00  0.2297E+02
      0.850  0.6649E+00  0.2297E+02
      0.859  0.6642E+00  0.2298E+02
      0.869  0.6635E+00  0.2298E+02
      0.878  0.6629E+00  0.2299E+02
      0.888  0.6622E+00  0.2300E+02
      0.897  0.6616E+00  0.2300E+02
      0.906  0.6610E+00  0.2301E+02
      0.916  0.6604E+00  0.2302E+02
      0.925  0.6599E+00  0.2302E+02
      0.934  0.6594E+00  0.2303E+02
      0.944  0.6589E+00  0.2303E+02
      0.953  0.6584E+00  0.2304E+02
      0.962  0.6580E+00  0.2305E+02
      0.972  0.6575E+00  0.2305E+02
      0.981  0.6571E+00  0.2306E+02
      0.991  0.6568E+00  0.2307E+02
      1.000  0.6564E+00  0.2307E+02
      1.009  0.6563E+00  0.2308E+02
      1.019  0.6565E+00  0.2308E+02
      1.028  0.6570E+00  0.2309E+02
      1.037  0.6578E+00  0.2310E+02
      1.047  0.6587E+00  0.2310E+02
      1.056  0.6600E+00  0.2311E+02
      1.066  0.6623E+00  0.2311E+02
      1.075  0.6659E+00  0.2312E+02
      1.084  0.6708E+00  0.2313E+02
      1.094  0.6770E+00  0.2313E+02
      1.103  0.6840E+00  0.2314E+02
      1.112  0.6910E+00  0.2315E+02
      1.122  0.6982E+00  0.2315E+02
      1.131  0.7055E+00  0.2316E+02
      1.141  0.7128E+00  0.2317E+02
      1.150  0.7656E+00  0.2317E+02
      1.159  0.7762E+00  0.2318E+02
      1.169  0.7838E+00  0.2319E+02
      1.178  0.7882E+00  0.2319E+02
      1.188  0.7901E+00  0.2320E+02
      1.197  0.7898E+00  0.2321E+02
      1.206  0.7874E+00  0.2322E+02
      1.216  0.7839E+00  0.2322E+02
      1.225  0.7804E+00  0.2323E+02
      1.234  0.7767E+00  0.2324E+02
      1.244  0.7730E+00  0.2325E+02
      1.253  0.7692E+00  0.2325E+02
      1.263  0.7653E+00  0.2326E+02
      1.272  0.7614E+00  0.2327E+02
      1.281  0.7573E+00  0.2328E+02
      1.291  0.7532E+00  0.2328E+02
      1.300  0.7491E+00  0.2329E+02
      1.309  0.7448E+00  0.2330E+02
      1.319  0.7405E+00  0.2330E+02
      1.328  0.7361E+00  0.2331E+02
      1.337  0.7316E+00  0.2332E+02
      1.347  0.7272E+00  0.2332E+02
      1.356  0.7233E+00  0.2333E+02
      1.366  0.7199E+00  0.2334E+02
      1.375  0.7191E+00  0.2334E+02
      1.384  0.7187E+00  0.2335E+02
      1.394  0.7186E+00  0.2336E+02
      1.403  0.7188E+00  0.2336E+02
      1.412  0.7194E+00  0.2337E+02
      1.422  0.7203E+00  0.2338E+02
      1.431  0.7242E+00  0.2338E+02
      1.441  0.7323E+00  0.2339E+02
      1.450  0.7402E+00  0.2340E+02
      1.459  0.7479E+00  0.2341E+02
      1.469  0.7553E+00  0.2341E+02
      1.478  0.7625E+00  0.2342E+02
      1.487  0.7693E+00  0.2343E+02
      1.497  0.7760E+00  0.2343E+02
      1.506  0.7824E+00  0.2344E+02
      1.516  0.7886E+00  0.2345E+02
      1.525  0.7945E+00  0.2346E+02
      1.534  0.7166E+00  0.2346E+02
      1.544  0.7161E+00  0.2347E+02
      1.553  0.7155E+00  0.2348E+02
      1.562  0.7147E+00  0.2348E+02
      1.572  0.7138E+00  0.2349E+02
      1.581  0.7127E+00  0.2350E+02
      1.591  0.7115E+00  0.2350E+02
      1.600  0.7101E+00  0.2351E+02
      1.609  0.7086E+00  0.2352E+02
      1.619  0.7070E+00  0.2352E+02
      1.628  0.7052E+00  0.2353E+02
      1.638  0.7033E+00  0.2354E+02
      1.647  0.7013E+00  0.2354E+02
      1.656  0.6992E+00  0.2355E+02
      1.666  0.6971E+00  0.2356E+02
      1.675  0.6949E+00  0.2356E+02
      1.684  0.6926E+00  0.2357E+02
      1.694  0.6903E+00  0.2358E+02
      1.703  0.6879E+00  0.2358E+02
      1.712  0.6854E+00  0.2359E+02
      1.722  0.6828E+00  0.2360E+02
      1.731  0.6802E+00  0.2360E+02
      1.741  0.6775E+00  0.2361E+02
      1.750  0.6747E+00  0.2361E+02
      1.759  0.6718E+00  0.2362E+02
      1.769  0.6683E+00  0.2363E+02
      1.778  0.6629E+00  0.2363E+02
      1.787  0.6577E+00  0.2364E+02
      1.797  0.6525E+00  0.2365E+02
      1.806  0.6474E+00  0.2365E+02
      1.816  0.6424E+00  0.2366E+02
      1.825  0.6375E+00  0.2366E+02
      1.834  0.6125E+00  0.2367E+02
      1.844  0.6077E+00  0.2368E+02
      1.853  0.6035E+00  0.2368E+02
      1.862  0.5994E+00  0.2369E+02
      1.872  0.5953E+00  0.2369E+02
      1.881  0.5913E+00  0.2370E+02
      1.891  0.5874E+00  0.2370E+02
      1.900  0.5835E+00  0.2371E+02
      1.909  0.5798E+00  0.2371E+02
      1.919  0.5762E+00  0.2372E+02
      1.928  0.5728E+00  0.2372E+02
      1.938  0.5697E+00  0.2373E+02
      1.947  0.5666E+00  0.2374E+02
      1.956  0.5636E+00  0.2374E+02
      1.966  0.5607E+00  0.2375E+02
      1.975  0.5583E+00  0.2375E+02
      1.984  0.5564E+00  0.2376E+02
      1.994  0.5545E+00  0.2376E+02
      2.003  0.5527E+00  0.2377E+02
      2.013  0.5510E+00  0.2377E+02
      2.022  0.5494E+00  0.2378E+02
      2.031  0.5479E+00  0.2378E+02
      2.041  0.5465E+00  0.2379E+02
      2.050  0.5452E+00  0.2379E+02
      2.059  0.5439E+00  0.2380E+02
      2.069  0.5428E+00  0.2380E+02
      2.078  0.5417E+00  0.2381E+02
      2.087  0.5407E+00  0.2381E+02
      2.097  0.5399E+00  0.2382E+02
      2.106  0.6271E+00  0.2382E+02
      2.116  0.6240E+00  0.2383E+02
      2.125  0.6210E+00  0.2383E+02
      2.134  0.6182E+00  0.2384E+02
      2.144  0.5572E+00  0.2385E+02
      2.153  0.5562E+00  0.2385E+02
      2.162  0.5553E+00  0.2386E+02
      2.172  0.5544E+00  0.2386E+02
      2.181  0.5538E+00  0.2387E+02
      2.191  0.5535E+00  0.2387E+02
      2.200  0.5531E+00  0.2388E+02
      2.209  0.6314E+00  0.2388E+02
      2.219  0.6343E+00  0.2389E+02
      2.228  0.6377E+00  0.2390E+02
      2.237  0.6416E+00  0.2390E+02
      2.247  0.5827E+00  0.2391E+02
      2.256  0.5857E+00  0.2391E+02
      2.266  0.5889E+00  0.2392E+02
      2.275  0.5923E+00  0.2392E+02
      2.284  0.5957E+00  0.2393E+02
      2.294  0.5994E+00  0.2393E+02
      2.303  0.6031E+00  0.2394E+02
      2.312  0.6071E+00  0.2395E+02
      2.322  0.6111E+00  0.2395E+02
      2.331  0.6153E+00  0.2396E+02
      2.341  0.6197E+00  0.2396E+02
      2.350  0.6242E+00  0.2397E+02
      2.359  0.6197E+00  0.2397E+02
      2.369  0.6340E+00  0.2398E+02
      2.378  0.6560E+00  0.2399E+02
      2.387  0.6859E+00  0.2399E+02
      2.397  0.7212E+00  0.2400E+02
      2.406  0.7430E+00  0.2401E+02
      2.416  0.7549E+00  0.2401E+02
      2.425  0.7667E+00  0.2402E+02
      2.434  0.7740E+00  0.2403E+02
      2.444  0.7792E+00  0.2404E+02
      2.453  0.7827E+00  0.2404E+02
      2.462  0.7846E+00  0.2405E+02
      2.472  0.7848E+00  0.2406E+02
      2.481  0.7834E+00  0.2406E+02
      2.491  0.7803E+00  0.2407E+02
      2.500  0.7755E+00  0.2408E+02
      2.509  0.7691E+00  0.2409E+02
      2.519  0.7610E+00  0.2409E+02
      2.528  0.7512E+00  0.2410E+02
      2.537  0.7398E+00  0.2411E+02
      2.547  0.7008E+00  0.2411E+02
      2.556  0.6513E+00  0.2412E+02
      2.566  0.5988E+00  0.2413E+02
      2.575  0.5374E+00  0.2413E+02
      2.584  0.4999E+00  0.2414E+02
      2.594  0.4915E+00  0.2414E+02
      2.603  0.4833E+00  0.2415E+02
      2.612  0.4752E+00  0.2415E+02
      2.622  0.4673E+00  0.2415E+02
      2.631  0.4596E+00  0.2416E+02
      2.641  0.4520E+00  0.2416E+02
      2.650  0.4446E+00  0.2417E+02
      2.659  0.4360E+00  0.2417E+02
      2.669  0.4301E+00  0.2418E+02
      2.678  0.4250E+00  0.2418E+02
      2.688  0.4203E+00  0.2418E+02
      2.697  0.4161E+00  0.2419E+02
      2.706  0.4123E+00  0.2419E+02
      2.716  0.4089E+00  0.2420E+02
      2.725  0.4060E+00  0.2420E+02
      2.734  0.4075E+00  0.2420E+02