 vasp.5.3.5 31Mar14 (build Jan 22 2015 17:36:29) complex                        
  
 executed on             LinuxIFC date 2016.09.19  11:26:04
 running on   32 total cores
 distrk:  each k-point on   32 cores,    1 groups
 distr:  one band on NCORES_PER_BAND=   8 cores,    4 groups


--------------------------------------------------------------------------------------------------------


 INCAR:
 POTCAR:    PAW_PBE Cd 06Sep2000                  
 POTCAR:    PAW_PBE Cd 06Sep2000                  
   VRHFIN =Cd : s2 d10                                                          
   LEXCH  = PE                                                                  
   EATOM  =  1293.1815 eV,   95.0462 Ry                                         
                                                                                
   TITEL  = PAW_PBE Cd 06Sep2000                                                
   LULTRA =        F    use ultrasoft PP ?                                      
   IUNSCR =        1    unscreen: 0-lin 1-nonlin 2-no                           
   RPACOR =    2.000    partial core radius                                     
   POMASS =  112.411; ZVAL   =   12.000    mass and valenz                      
   RCORE  =    2.300    outmost cutoff radius                                   
   RWIGS  =    2.980; RWIGS  =    1.577    wigner-seitz radius (au A)           
   ENMAX  =  274.336; ENMIN  =  205.752 eV                                      
   RCLOC  =    2.054    cutoff for local pot                                    
   LCOR   =        T    correct aug charges                                     
   LPAW   =        T    paw PP                                                  
   EAUG   =  456.106                                                            
   DEXC   =    0.000                                                            
   RMAX   =    2.358    core radius for proj-oper                               
   RAUG   =    1.300    factor for augmentation sphere                          
   RDEP   =    2.450    radius for radial grids                                 
   RDEPT  =    1.955    core radius for aug-charge                              
                                                                                
   Atomic configuration                                                         
   12 entries                                                                   
     n  l   j            E        occ.                                          
     1  0  0.50    -26519.7817   2.0000                                         
     2  0  0.50     -3936.9612   2.0000                                         
     2  1  1.50     -3532.2230   6.0000                                         
     3  0  0.50      -733.7908   2.0000                                         
     3  1  1.50      -601.0792   6.0000                                         
     3  2  2.50      -393.5307  10.0000                                         
     4  0  0.50      -105.8977   2.0000                                         
     4  1  1.50       -66.9488   6.0000                                         
     4  2  2.50       -11.7331  10.0000                                         
     5  0  0.50        -5.6592   2.0000                                         
     5  1  0.50        -1.3606   0.0000                                         
     4  3  2.50        -1.3606   0.0000                                         
   Description                                                                  
     l       E           TYP  RCUT    TYP  RCUT                                 
     2    -11.7331479     23  2.300                                             
     2    -13.0937305     23  2.300                                             
     0     -5.6591502     23  2.300                                             
     0     -1.5561433     23  2.300                                             
     1     -2.7211652     23  2.300                                             
     1      8.3548275     23  2.300                                             
  local pseudopotential read in
  partial core-charges read in
  partial kinetic energy density read in
  atomic valenz-charges read in
  non local Contribution for L=           2  read in
    real space projection operators read in
  non local Contribution for L=           2  read in
    real space projection operators read in
  non local Contribution for L=           0  read in
    real space projection operators read in
  non local Contribution for L=           0  read in
    real space projection operators read in
  non local Contribution for L=           1  read in
    real space projection operators read in
  non local Contribution for L=           1  read in
    real space projection operators read in
    PAW grid and wavefunctions read in
 
   number of l-projection  operators is LMAX  =           6
   number of lm-projection operators is LMMAX =          18
 
  PAW_PBE Cd 06Sep2000                  :
 energy of atom  1       EATOM=-1293.1815
 kinetic energy error for atom=    0.0041 (will be added to EATOM!!)
 
 
 POSCAR: Cd2                                     
  positions in direct lattice
  velocities in cartesian coordinates
 exchange correlation table for  LEXCH =        8
   RHO(1)=    0.500       N(1)  =     2000
   RHO(2)=  100.500       N(2)  =     4000
 


--------------------------------------------------------------------------------------------------------


 ion  position               nearest neighbor table
   1  0.333  0.667  0.250-   2 3.44   2 3.44   2 3.44   2 3.44   2 3.44   2 3.44
   2  0.667  0.333  0.750-   1 3.44   1 3.44   1 3.44   1 3.44   1 3.44   1 3.44
 
  LATTYP: Found a hexagonal cell.
 ALAT       =     3.0078459596
 C/A-ratio  =     1.9754878009
  
  Lattice vectors:
  
 A1 = (   3.0078460000,   0.0000000000,   0.0000000000)
 A2 = (  -1.5039230000,   2.6048710000,   0.0000000000)
 A3 = (   0.0000000000,   0.0000000000,   5.9419630000)


Analysis of symmetry for initial positions (statically):
=====================================================================
 Subroutine PRICEL returns:
 Original cell was already a primitive cell.
 

 Routine SETGRP: Setting up the symmetry group for a 
 hexagonal supercell.


 Subroutine GETGRP returns: Found 24 space group operations
 (whereof 12 operations were pure point group operations)
 out of a pool of 24 trial point group operations.


The static configuration has the point symmetry D_3d.
 The point group associated with its full space group is D_6h.


Analysis of symmetry for dynamics (positions and initial velocities):
=====================================================================
 Subroutine PRICEL returns:
 Original cell was already a primitive cell.
 

 Routine SETGRP: Setting up the symmetry group for a 
 hexagonal supercell.


 Subroutine GETGRP returns: Found 24 space group operations
 (whereof 12 operations were pure point group operations)
 out of a pool of 24 trial point group operations.


The dynamic configuration has the point symmetry D_3d.
 The point group associated with its full space group is D_6h.
 
 
 KPOINTS: Automatic mesh                          

Automatic generation of k-mesh.
Space group operators:
 irot       det(A)        alpha          n_x          n_y          n_z        tau_x        tau_y        tau_z
    1     1.000000     0.000000     1.000000     0.000000     0.000000     0.000000     0.000000     0.000000
    2    -1.000000     0.000000     1.000000     0.000000     0.000000     0.000000     0.000000     0.000000
    3     1.000000   120.000000     0.000000     0.000000    -1.000000     0.000000     0.000000     0.000000
    4    -1.000000   120.000000     0.000000     0.000000    -1.000000     0.000000     0.000000     0.000000
    5     1.000000   120.000000     0.000000     0.000000     1.000000     0.000000     0.000000     0.000000
    6    -1.000000   120.000000     0.000000     0.000000     1.000000     0.000000     0.000000     0.000000
    7     1.000000   180.000000     1.000000     0.000000     0.000000     0.000000     0.000000     0.000000
    8    -1.000000   180.000000     1.000000     0.000000     0.000000     0.000000     0.000000     0.000000
    9     1.000000   180.000000     0.500000    -0.866025     0.000000     0.000000     0.000000     0.000000
   10    -1.000000   180.000000     0.500000    -0.866025     0.000000     0.000000     0.000000     0.000000
   11     1.000000   180.000000    -0.500000    -0.866025     0.000000     0.000000     0.000000     0.000000
   12    -1.000000   180.000000    -0.500000    -0.866025     0.000000     0.000000     0.000000     0.000000
   13     1.000000    60.000000     0.000000     0.000000    -1.000000     0.000001     0.000000     0.500000
   14    -1.000000    60.000000     0.000000     0.000000    -1.000000     0.000001     0.000000     0.500000
   15     1.000000   180.000000     0.000000     0.000000     1.000000     0.000000     0.000000     0.500000
   16    -1.000000   180.000000     0.000000     0.000000     1.000000     0.000000     0.000000     0.500000
   17     1.000000    60.000000     0.000000     0.000000     1.000000     0.000000     0.000000     0.500000
   18    -1.000000    60.000000     0.000000     0.000000     1.000000     0.000000     0.000000     0.500000
   19     1.000000   180.000000     0.866025    -0.500000     0.000000     0.000000     0.000000     0.500000
   20    -1.000000   180.000000     0.866025    -0.500000     0.000000     0.000000     0.000000     0.500000
   21     1.000000   180.000000     0.000000     1.000000     0.000000     0.000001     0.000000     0.500000
   22    -1.000000   180.000000     0.000000     1.000000     0.000000     0.000001     0.000000     0.500000
   23     1.000000   180.000000     0.866025     0.500000     0.000000     0.000000     0.000000     0.500000
   24    -1.000000   180.000000     0.866025     0.500000     0.000000     0.000000     0.000000     0.500000
 
 Subroutine IBZKPT returns following result:
 ===========================================
 
 Found     96 irreducible k-points:
 
 Following reciprocal coordinates:
            Coordinates               Weight
  0.000000  0.000000  0.000000      1.000000
  0.090909 -0.000000  0.000000      6.000000
  0.181818 -0.000000  0.000000      6.000000
  0.272727  0.000000  0.000000      6.000000
  0.363636 -0.000000  0.000000      6.000000
  0.454545 -0.000000  0.000000      6.000000
  0.090909  0.090909  0.000000      6.000000
  0.181818  0.090909  0.000000     12.000000
  0.272727  0.090909  0.000000     12.000000
  0.363636  0.090909  0.000000     12.000000
  0.454545  0.090909  0.000000      6.000000
  0.181818  0.181818  0.000000      6.000000
  0.272727  0.181818  0.000000     12.000000
  0.363636  0.181818  0.000000     12.000000
  0.272727  0.272727  0.000000      6.000000
  0.363636  0.272727  0.000000      6.000000
  0.000000  0.000000  0.090909      2.000000
  0.090909 -0.000000  0.090909     12.000000
  0.181818 -0.000000  0.090909     12.000000
  0.272727  0.000000  0.090909     12.000000
  0.363636 -0.000000  0.090909     12.000000
  0.454545 -0.000000  0.090909     12.000000
  0.090909  0.090909  0.090909     12.000000
  0.181818  0.090909  0.090909     24.000000
  0.272727  0.090909  0.090909     24.000000
  0.363636  0.090909  0.090909     24.000000
  0.454545  0.090909  0.090909     12.000000
  0.181818  0.181818  0.090909     12.000000
  0.272727  0.181818  0.090909     24.000000
  0.363636  0.181818  0.090909     24.000000
  0.272727  0.272727  0.090909     12.000000
  0.363636  0.272727  0.090909     12.000000
  0.000000  0.000000  0.181818      2.000000
  0.090909 -0.000000  0.181818     12.000000
  0.181818 -0.000000  0.181818     12.000000
  0.272727  0.000000  0.181818     12.000000
  0.363636 -0.000000  0.181818     12.000000
  0.454545 -0.000000  0.181818     12.000000
  0.090909  0.090909  0.181818     12.000000
  0.181818  0.090909  0.181818     24.000000
  0.272727  0.090909  0.181818     24.000000
  0.363636  0.090909  0.181818     24.000000
  0.454545  0.090909  0.181818     12.000000
  0.181818  0.181818  0.181818     12.000000
  0.272727  0.181818  0.181818     24.000000
  0.363636  0.181818  0.181818     24.000000
  0.272727  0.272727  0.181818     12.000000
  0.363636  0.272727  0.181818     12.000000
  0.000000  0.000000  0.272727      2.000000
  0.090909 -0.000000  0.272727     12.000000
  0.181818 -0.000000  0.272727     12.000000
  0.272727  0.000000  0.272727     12.000000
  0.363636 -0.000000  0.272727     12.000000
  0.454545 -0.000000  0.272727     12.000000
  0.090909  0.090909  0.272727     12.000000
  0.181818  0.090909  0.272727     24.000000
  0.272727  0.090909  0.272727     24.000000
  0.363636  0.090909  0.272727     24.000000
  0.454545  0.090909  0.272727     12.000000
  0.181818  0.181818  0.272727     12.000000
  0.272727  0.181818  0.272727     24.000000
  0.363636  0.181818  0.272727     24.000000
  0.272727  0.272727  0.272727     12.000000
  0.363636  0.272727  0.272727     12.000000
  0.000000  0.000000  0.363636      2.000000
  0.090909 -0.000000  0.363636     12.000000
  0.181818 -0.000000  0.363636     12.000000
  0.272727  0.000000  0.363636     12.000000
  0.363636 -0.000000  0.363636     12.000000
  0.454545 -0.000000  0.363636     12.000000
  0.090909  0.090909  0.363636     12.000000
  0.181818  0.090909  0.363636     24.000000
  0.272727  0.090909  0.363636     24.000000
  0.363636  0.090909  0.363636     24.000000
  0.454545  0.090909  0.363636     12.000000
  0.181818  0.181818  0.363636     12.000000
  0.272727  0.181818  0.363636     24.000000
  0.363636  0.181818  0.363636     24.000000
  0.272727  0.272727  0.363636     12.000000
  0.363636  0.272727  0.363636     12.000000
  0.000000  0.000000  0.454545      2.000000
  0.090909 -0.000000  0.454545     12.000000
  0.181818 -0.000000  0.454545     12.000000
  0.272727  0.000000  0.454545     12.000000
  0.363636 -0.000000  0.454545     12.000000
  0.454545 -0.000000  0.454545     12.000000
  0.090909  0.090909  0.454545     12.000000
  0.181818  0.090909  0.454545     24.000000
  0.272727  0.090909  0.454545     24.000000
  0.363636  0.090909  0.454545     24.000000
  0.454545  0.090909  0.454545     12.000000
  0.181818  0.181818  0.454545     12.000000
  0.272727  0.181818  0.454545     24.000000
  0.363636  0.181818  0.454545     24.000000
  0.272727  0.272727  0.454545     12.000000
  0.363636  0.272727  0.454545     12.000000
 
 Following cartesian coordinates:
            Coordinates               Weight
  0.000000  0.000000  0.000000      1.000000
  0.030224  0.017450  0.000000      6.000000
  0.060448  0.034900  0.000000      6.000000
  0.090672  0.052349  0.000000      6.000000
  0.120896  0.069799  0.000000      6.000000
  0.151120  0.087249  0.000000      6.000000
  0.030224  0.052349  0.000000      6.000000
  0.060448  0.069799  0.000000     12.000000
  0.090672  0.087249  0.000000     12.000000
  0.120896  0.104699  0.000000     12.000000
  0.151120  0.122149  0.000000      6.000000
  0.060448  0.104699  0.000000      6.000000
  0.090672  0.122149  0.000000     12.000000
  0.120896  0.139599  0.000000     12.000000
  0.090672  0.157048  0.000000      6.000000
  0.120896  0.174498  0.000000      6.000000
  0.000000  0.000000  0.015300      2.000000
  0.030224  0.017450  0.015300     12.000000
  0.060448  0.034900  0.015300     12.000000
  0.090672  0.052349  0.015300     12.000000
  0.120896  0.069799  0.015300     12.000000
  0.151120  0.087249  0.015300     12.000000
  0.030224  0.052349  0.015300     12.000000
  0.060448  0.069799  0.015300     24.000000
  0.090672  0.087249  0.015300     24.000000
  0.120896  0.104699  0.015300     24.000000
  0.151120  0.122149  0.015300     12.000000
  0.060448  0.104699  0.015300     12.000000
  0.090672  0.122149  0.015300     24.000000
  0.120896  0.139599  0.015300     24.000000
  0.090672  0.157048  0.015300     12.000000
  0.120896  0.174498  0.015300     12.000000
  0.000000  0.000000  0.030599      2.000000
  0.030224  0.017450  0.030599     12.000000
  0.060448  0.034900  0.030599     12.000000
  0.090672  0.052349  0.030599     12.000000
  0.120896  0.069799  0.030599     12.000000
  0.151120  0.087249  0.030599     12.000000
  0.030224  0.052349  0.030599     12.000000
  0.060448  0.069799  0.030599     24.000000
  0.090672  0.087249  0.030599     24.000000
  0.120896  0.104699  0.030599     24.000000
  0.151120  0.122149  0.030599     12.000000
  0.060448  0.104699  0.030599     12.000000
  0.090672  0.122149  0.030599     24.000000
  0.120896  0.139599  0.030599     24.000000
  0.090672  0.157048  0.030599     12.000000
  0.120896  0.174498  0.030599     12.000000
  0.000000  0.000000  0.045899      2.000000
  0.030224  0.017450  0.045899     12.000000
  0.060448  0.034900  0.045899     12.000000
  0.090672  0.052349  0.045899     12.000000
  0.120896  0.069799  0.045899     12.000000
  0.151120  0.087249  0.045899     12.000000
  0.030224  0.052349  0.045899     12.000000
  0.060448  0.069799  0.045899     24.000000
  0.090672  0.087249  0.045899     24.000000
  0.120896  0.104699  0.045899     24.000000
  0.151120  0.122149  0.045899     12.000000
  0.060448  0.104699  0.045899     12.000000
  0.090672  0.122149  0.045899     24.000000
  0.120896  0.139599  0.045899     24.000000
  0.090672  0.157048  0.045899     12.000000
  0.120896  0.174498  0.045899     12.000000
  0.000000  0.000000  0.061198      2.000000
  0.030224  0.017450  0.061198     12.000000
  0.060448  0.034900  0.061198     12.000000
  0.090672  0.052349  0.061198     12.000000
  0.120896  0.069799  0.061198     12.000000
  0.151120  0.087249  0.061198     12.000000
  0.030224  0.052349  0.061198     12.000000
  0.060448  0.069799  0.061198     24.000000
  0.090672  0.087249  0.061198     24.000000
  0.120896  0.104699  0.061198     24.000000
  0.151120  0.122149  0.061198     12.000000
  0.060448  0.104699  0.061198     12.000000
  0.090672  0.122149  0.061198     24.000000
  0.120896  0.139599  0.061198     24.000000
  0.090672  0.157048  0.061198     12.000000
  0.120896  0.174498  0.061198     12.000000
  0.000000  0.000000  0.076498      2.000000
  0.030224  0.017450  0.076498     12.000000
  0.060448  0.034900  0.076498     12.000000
  0.090672  0.052349  0.076498     12.000000
  0.120896  0.069799  0.076498     12.000000
  0.151120  0.087249  0.076498     12.000000
  0.030224  0.052349  0.076498     12.000000
  0.060448  0.069799  0.076498     24.000000
  0.090672  0.087249  0.076498     24.000000
  0.120896  0.104699  0.076498     24.000000
  0.151120  0.122149  0.076498     12.000000
  0.060448  0.104699  0.076498     12.000000
  0.090672  0.122149  0.076498     24.000000
  0.120896  0.139599  0.076498     24.000000
  0.090672  0.157048  0.076498     12.000000
  0.120896  0.174498  0.076498     12.000000
 
 TETIRR: Found   1331 inequivalent tetrahedra from     7986


--------------------------------------------------------------------------------------------------------




 Dimension of arrays:
   k-points           NKPTS =     96   k-points in BZ     NKDIM =     96   number of bands    NBANDS=     16
   number of dos      NEDOS =   1601   number of ions     NIONS =      2
   non local maximal  LDIM  =      6   non local SUM 2l+1 LMDIM =     18
   total plane-waves  NPLWV =  27648
   max r-space proj   IRMAX =      1   max aug-charges    IRDMAX=  25310
   dimension x,y,z NGX =    24 NGY =   24 NGZ =   48
   dimension x,y,z NGXF=    48 NGYF=   48 NGZF=   96
   support grid    NGXF=    48 NGYF=   48 NGZF=   96
   ions per type =               2
 NGX,Y,Z   is equivalent  to a cutoff of  13.26, 13.26, 13.43 a.u.
 NGXF,Y,Z  is equivalent  to a cutoff of  26.53, 26.53, 26.86 a.u.


 I would recommend the setting:
   dimension x,y,z NGX =    24 NGY =   24 NGZ =   47
 SYSTEM =  CdIn2S4                                 
 POSCAR =  Cd2                                     

 Startparameter for this run:
   NWRITE =      2    write-flag & timer
   PREC   = accura    normal or accurate (medium, high low for compatibility)
   ISTART =      0    job   : 0-new  1-cont  2-samecut
   ICHARG =      2    charge: 1-file 2-atom 10-const
   ISPIN  =      1    spin polarized calculation?
   LNONCOLLINEAR =      F non collinear calculations
   LSORBIT =      F    spin-orbit coupling
   INIWAV =      1    electr: 0-lowe 1-rand  2-diag
   LASPH  =      F    aspherical Exc in radial PAW
   METAGGA=      F    non-selfconsistent MetaGGA calc.

 Electronic Relaxation 1
   ENCUT  =  600.0 eV  44.10 Ry    6.64 a.u.   6.01  6.01 11.87*2*pi/ulx,y,z
   ENINI  =  600.0     initial cutoff
   ENAUG  =  456.1 eV  augmentation charge cutoff
   NELM   =     60;   NELMIN=  2; NELMDL= -5     # of ELM steps 
   EDIFF  = 0.1E-04   stopping-criterion for ELM
   LREAL  =      F    real-space projection
   NLSPLINE    = F    spline interpolate recip. space projectors
   LCOMPAT=      F    compatible to vasp.4.4
   GGA_COMPAT  = T    GGA compatible to vasp.4.4-vasp.4.6
   LMAXPAW     = -100 max onsite density
   LMAXMIX     =    2 max onsite mixed and CHGCAR
   VOSKOWN=      0    Vosko Wilk Nusair interpolation
   ROPT   =    0.00000
 Ionic relaxation
   EDIFFG = 0.1E-03   stopping-criterion for IOM
   NSW    =      0    number of steps for IOM
   NBLOCK =      1;   KBLOCK =      1    inner block; outer block 
   IBRION =     -1    ionic relax: 0-MD 1-quasi-New 2-CG
   NFREE  =      1    steps in history (QN), initial steepest desc. (CG)
   ISIF   =      0    stress and relaxation
   IWAVPR =     10    prediction:  0-non 1-charg 2-wave 3-comb
   ISYM   =      2    0-nonsym 1-usesym 2-fastsym
   LCORR  =      T    Harris-Foulkes like correction to forces

   POTIM  = 0.5000    time-step for ionic-motion
   TEIN   =    0.0    initial temperature
   TEBEG  =    0.0;   TEEND  =   0.0 temperature during run
   SMASS  =  -3.00    Nose mass-parameter (am)
   estimated Nose-frequenzy (Omega)   =  0.10E-29 period in steps =****** mass=  -0.207E-27a.u.
   SCALEE = 1.0000    scale energy and forces
   NPACO  =    256;   APACO  = 16.0  distance and # of slots for P.C.
   PSTRESS=    0.0 pullay stress

  Mass of Ions in am
   POMASS = 112.41
  Ionic Valenz
   ZVAL   =  12.00
  Atomic Wigner-Seitz radii
   RWIGS  =  -1.00
  virtual crystal weights 
   VCA    =   1.00
   NELECT =      24.0000    total number of electrons
   NUPDOWN=      -1.0000    fix difference up-down

 DOS related values:
   EMIN   =  -5.00;   EMAX   = 10.00  energy-range for DOS
   EFERMI =   0.00
   ISMEAR =    -4;   SIGMA  =   0.20  broadening in eV -4-tet -1-fermi 0-gaus

 Electronic relaxation 2 (details)
   IALGO  =     38    algorithm
   LDIAG  =      T    sub-space diagonalisation (order eigenvalues)
   LSUBROT=      F    optimize rotation matrix (better conditioning)
   TURBO    =      0    0=normal 1=particle mesh
   IRESTART =      0    0=no restart 2=restart with 2 vectors
   NREBOOT  =      0    no. of reboots
   NMIN     =      0    reboot dimension
   EREF     =   0.00    reference energy to select bands
   IMIX   =      4    mixing-type and parameters
     AMIX     =   0.40;   BMIX     =  1.00
     AMIX_MAG =   1.60;   BMIX_MAG =  1.00
     AMIN     =   0.10
     WC   =   100.;   INIMIX=   1;  MIXPRE=   1;  MAXMIX= -45

 Intra band minimization:
   WEIMIN = 0.0000     energy-eigenvalue tresh-hold
   EBREAK =  0.16E-06  absolut break condition
   DEPER  =   0.30     relativ break condition  

   TIME   =   0.40     timestep for ELM

  volume/ion in A,a.u.               =      23.28       157.09
  Fermi-wavevector in a.u.,A,eV,Ry     =   1.312667  2.480581 23.444136  1.723095
  Thomas-Fermi vector in A             =   2.443044
 
 Write flags
   LWAVE  =      T    write WAVECAR
   LCHARG =      T    write CHGCAR
   LVTOT  =      F    write LOCPOT, total local potential
   LVHAR  =      F    write LOCPOT, Hartree potential only
   LELF   =      F    write electronic localiz. function (ELF)
   LORBIT =     11    0 simple, 1 ext, 2 COOP (PROOUT)


 Dipole corrections
   LMONO  =      F    monopole corrections only (constant potential shift)
   LDIPOL =      F    correct potential (dipole corrections)
   IDIPOL =      0    1-x, 2-y, 3-z, 4-all directions 
   EPSILON=  1.0000000 bulk dielectric constant

 Exchange correlation treatment:
   GGA     =    --    GGA type
   LEXCH   =     8    internal setting for exchange type
   VOSKOWN=      0    Vosko Wilk Nusair interpolation
   LHFCALC =     F    Hartree Fock is set to
   LHFONE  =     F    Hartree Fock one center treatment
   AEXX    =    0.0000 exact exchange contribution

 Linear response parameters
   LEPSILON=     F    determine dielectric tensor
   LRPA    =     F    only Hartree local field effects (RPA)
   LNABLA  =     F    use nabla operator in PAW spheres
   LVEL    =     F    velocity operator in full k-point grid
   LINTERFAST=   F  fast interpolation
   KINTER  =     0    interpolate to denser k-point grid
   CSHIFT  =0.1000    complex shift for real part using Kramers Kronig
   OMEGAMAX=  -1.0    maximum frequency
   DEG_THRESHOLD= 0.2000000E-02 threshold for treating states as degnerate
   RTIME   =    0.100 relaxation time in fs

 Orbital magnetization related:
   ORBITALMAG=     F  switch on orbital magnetization
   LCHIMAG   =     F  perturbation theory with respect to B field
   DQ        =  0.001000  dq finite difference perturbation B field



--------------------------------------------------------------------------------------------------------


 Static calculation
 charge density and potential will be updated during run
 non-spin polarized calculation
 Variant of blocked Davidson
 Davidson routine will perform the subspace rotation
 perform sub-space diagonalisation
    after iterative eigenvector-optimisation
 modified Broyden-mixing scheme, WC =      100.0
 initial mixing is a Kerker type mixing with AMIX =  0.4000 and BMIX =      1.0000
 Hartree-type preconditioning will be used
 using additional bands            4
 reciprocal scheme for non local part
 use partial core corrections
 calculate Harris-corrections to forces 
   (improved forces if not selfconsistent)
 use gradient corrections 
 use of overlap-Matrix (Vanderbilt PP)
 Fermi weights with tetrahedron method witout Bloechl corrections


--------------------------------------------------------------------------------------------------------


  energy-cutoff  :      600.00
  volume of cell :       46.56
      direct lattice vectors                 reciprocal lattice vectors
     3.007846000  0.000000000  0.000000000     0.332463830  0.191948085  0.000000000
    -1.503923000  2.604871000  0.000000000     0.000000000  0.383896170  0.000000000
     0.000000000  0.000000000  5.941963000     0.000000000  0.000000000  0.168294552

  length of vectors
     3.007846000  3.007845960  5.941963000     0.383896165  0.383896170  0.168294552


 
 k-points in units of 2pi/SCALE and weight: Automatic mesh                          
   0.00000000  0.00000000  0.00000000       0.001
   0.03022398  0.01744983  0.00000000       0.005
   0.06044797  0.03489965  0.00000000       0.005
   0.09067195  0.05234948  0.00000000       0.005
   0.12089594  0.06979930  0.00000000       0.005
   0.15111992  0.08724913  0.00000000       0.005
   0.03022398  0.05234948  0.00000000       0.005
   0.06044797  0.06979930  0.00000000       0.009
   0.09067195  0.08724913  0.00000000       0.009
   0.12089594  0.10469896  0.00000000       0.009
   0.15111992  0.12214878  0.00000000       0.005
   0.06044797  0.10469896  0.00000000       0.005
   0.09067195  0.12214878  0.00000000       0.009
   0.12089594  0.13959861  0.00000000       0.009
   0.09067195  0.15704843  0.00000000       0.005
   0.12089594  0.17449826  0.00000000       0.005
   0.00000000  0.00000000  0.01529950       0.002
   0.03022398  0.01744983  0.01529950       0.009
   0.06044797  0.03489965  0.01529950       0.009
   0.09067195  0.05234948  0.01529950       0.009
   0.12089594  0.06979930  0.01529950       0.009
   0.15111992  0.08724913  0.01529950       0.009
   0.03022398  0.05234948  0.01529950       0.009
   0.06044797  0.06979930  0.01529950       0.018
   0.09067195  0.08724913  0.01529950       0.018
   0.12089594  0.10469896  0.01529950       0.018
   0.15111992  0.12214878  0.01529950       0.009
   0.06044797  0.10469896  0.01529950       0.009
   0.09067195  0.12214878  0.01529950       0.018
   0.12089594  0.13959861  0.01529950       0.018
   0.09067195  0.15704843  0.01529950       0.009
   0.12089594  0.17449826  0.01529950       0.009
   0.00000000  0.00000000  0.03059901       0.002
   0.03022398  0.01744983  0.03059901       0.009
   0.06044797  0.03489965  0.03059901       0.009
   0.09067195  0.05234948  0.03059901       0.009
   0.12089594  0.06979930  0.03059901       0.009
   0.15111992  0.08724913  0.03059901       0.009
   0.03022398  0.05234948  0.03059901       0.009
   0.06044797  0.06979930  0.03059901       0.018
   0.09067195  0.08724913  0.03059901       0.018
   0.12089594  0.10469896  0.03059901       0.018
   0.15111992  0.12214878  0.03059901       0.009
   0.06044797  0.10469896  0.03059901       0.009
   0.09067195  0.12214878  0.03059901       0.018
   0.12089594  0.13959861  0.03059901       0.018
   0.09067195  0.15704843  0.03059901       0.009
   0.12089594  0.17449826  0.03059901       0.009
   0.00000000  0.00000000  0.04589851       0.002
   0.03022398  0.01744983  0.04589851       0.009
   0.06044797  0.03489965  0.04589851       0.009
   0.09067195  0.05234948  0.04589851       0.009
   0.12089594  0.06979930  0.04589851       0.009
   0.15111992  0.08724913  0.04589851       0.009
   0.03022398  0.05234948  0.04589851       0.009
   0.06044797  0.06979930  0.04589851       0.018
   0.09067195  0.08724913  0.04589851       0.018
   0.12089594  0.10469896  0.04589851       0.018
   0.15111992  0.12214878  0.04589851       0.009
   0.06044797  0.10469896  0.04589851       0.009
   0.09067195  0.12214878  0.04589851       0.018
   0.12089594  0.13959861  0.04589851       0.018
   0.09067195  0.15704843  0.04589851       0.009
   0.12089594  0.17449826  0.04589851       0.009
   0.00000000  0.00000000  0.06119802       0.002
   0.03022398  0.01744983  0.06119802       0.009
   0.06044797  0.03489965  0.06119802       0.009
   0.09067195  0.05234948  0.06119802       0.009
   0.12089594  0.06979930  0.06119802       0.009
   0.15111992  0.08724913  0.06119802       0.009
   0.03022398  0.05234948  0.06119802       0.009
   0.06044797  0.06979930  0.06119802       0.018
   0.09067195  0.08724913  0.06119802       0.018
   0.12089594  0.10469896  0.06119802       0.018
   0.15111992  0.12214878  0.06119802       0.009
   0.06044797  0.10469896  0.06119802       0.009
   0.09067195  0.12214878  0.06119802       0.018
   0.12089594  0.13959861  0.06119802       0.018
   0.09067195  0.15704843  0.06119802       0.009
   0.12089594  0.17449826  0.06119802       0.009
   0.00000000  0.00000000  0.07649752       0.002
   0.03022398  0.01744983  0.07649752       0.009
   0.06044797  0.03489965  0.07649752       0.009
   0.09067195  0.05234948  0.07649752       0.009
   0.12089594  0.06979930  0.07649752       0.009
   0.15111992  0.08724913  0.07649752       0.009
   0.03022398  0.05234948  0.07649752       0.009
   0.06044797  0.06979930  0.07649752       0.018
   0.09067195  0.08724913  0.07649752       0.018
   0.12089594  0.10469896  0.07649752       0.018
   0.15111992  0.12214878  0.07649752       0.009
   0.06044797  0.10469896  0.07649752       0.009
   0.09067195  0.12214878  0.07649752       0.018
   0.12089594  0.13959861  0.07649752       0.018
   0.09067195  0.15704843  0.07649752       0.009
   0.12089594  0.17449826  0.07649752       0.009
 
 k-points in reciprocal lattice and weights: Automatic mesh                          
   0.00000000  0.00000000  0.00000000       0.001
   0.09090909 -0.00000000  0.00000000       0.005
   0.18181818 -0.00000000  0.00000000       0.005
   0.27272727  0.00000000  0.00000000       0.005
   0.36363636 -0.00000000  0.00000000       0.005
   0.45454545 -0.00000000  0.00000000       0.005
   0.09090909  0.09090909  0.00000000       0.005
   0.18181818  0.09090909  0.00000000       0.009
   0.27272727  0.09090909  0.00000000       0.009
   0.36363636  0.09090909  0.00000000       0.009
   0.45454545  0.09090909  0.00000000       0.005
   0.18181818  0.18181818  0.00000000       0.005
   0.27272727  0.18181818  0.00000000       0.009
   0.36363636  0.18181818  0.00000000       0.009
   0.27272727  0.27272727  0.00000000       0.005
   0.36363636  0.27272727  0.00000000       0.005
   0.00000000  0.00000000  0.09090909       0.002
   0.09090909 -0.00000000  0.09090909       0.009
   0.18181818 -0.00000000  0.09090909       0.009
   0.27272727  0.00000000  0.09090909       0.009
   0.36363636 -0.00000000  0.09090909       0.009
   0.45454545 -0.00000000  0.09090909       0.009
   0.09090909  0.09090909  0.09090909       0.009
   0.18181818  0.09090909  0.09090909       0.018
   0.27272727  0.09090909  0.09090909       0.018
   0.36363636  0.09090909  0.09090909       0.018
   0.45454545  0.09090909  0.09090909       0.009
   0.18181818  0.18181818  0.09090909       0.009
   0.27272727  0.18181818  0.09090909       0.018
   0.36363636  0.18181818  0.09090909       0.018
   0.27272727  0.27272727  0.09090909       0.009
   0.36363636  0.27272727  0.09090909       0.009
   0.00000000  0.00000000  0.18181818       0.002
   0.09090909 -0.00000000  0.18181818       0.009
   0.18181818 -0.00000000  0.18181818       0.009
   0.27272727  0.00000000  0.18181818       0.009
   0.36363636 -0.00000000  0.18181818       0.009
   0.45454545 -0.00000000  0.18181818       0.009
   0.09090909  0.09090909  0.18181818       0.009
   0.18181818  0.09090909  0.18181818       0.018
   0.27272727  0.09090909  0.18181818       0.018
   0.36363636  0.09090909  0.18181818       0.018
   0.45454545  0.09090909  0.18181818       0.009
   0.18181818  0.18181818  0.18181818       0.009
   0.27272727  0.18181818  0.18181818       0.018
   0.36363636  0.18181818  0.18181818       0.018
   0.27272727  0.27272727  0.18181818       0.009
   0.36363636  0.27272727  0.18181818       0.009
   0.00000000  0.00000000  0.27272727       0.002
   0.09090909 -0.00000000  0.27272727       0.009
   0.18181818 -0.00000000  0.27272727       0.009
   0.27272727  0.00000000  0.27272727       0.009
   0.36363636 -0.00000000  0.27272727       0.009
   0.45454545 -0.00000000  0.27272727       0.009
   0.09090909  0.09090909  0.27272727       0.009
   0.18181818  0.09090909  0.27272727       0.018
   0.27272727  0.09090909  0.27272727       0.018
   0.36363636  0.09090909  0.27272727       0.018
   0.45454545  0.09090909  0.27272727       0.009
   0.18181818  0.18181818  0.27272727       0.009
   0.27272727  0.18181818  0.27272727       0.018
   0.36363636  0.18181818  0.27272727       0.018
   0.27272727  0.27272727  0.27272727       0.009
   0.36363636  0.27272727  0.27272727       0.009
   0.00000000  0.00000000  0.36363636       0.002
   0.09090909 -0.00000000  0.36363636       0.009
   0.18181818 -0.00000000  0.36363636       0.009
   0.27272727  0.00000000  0.36363636       0.009
   0.36363636 -0.00000000  0.36363636       0.009
   0.45454545 -0.00000000  0.36363636       0.009
   0.09090909  0.09090909  0.36363636       0.009
   0.18181818  0.09090909  0.36363636       0.018
   0.27272727  0.09090909  0.36363636       0.018
   0.36363636  0.09090909  0.36363636       0.018
   0.45454545  0.09090909  0.36363636       0.009
   0.18181818  0.18181818  0.36363636       0.009
   0.27272727  0.18181818  0.36363636       0.018
   0.36363636  0.18181818  0.36363636       0.018
   0.27272727  0.27272727  0.36363636       0.009
   0.36363636  0.27272727  0.36363636       0.009
   0.00000000  0.00000000  0.45454545       0.002
   0.09090909 -0.00000000  0.45454545       0.009
   0.18181818 -0.00000000  0.45454545       0.009
   0.27272727  0.00000000  0.45454545       0.009
   0.36363636 -0.00000000  0.45454545       0.009
   0.45454545 -0.00000000  0.45454545       0.009
   0.09090909  0.09090909  0.45454545       0.009
   0.18181818  0.09090909  0.45454545       0.018
   0.27272727  0.09090909  0.45454545       0.018
   0.36363636  0.09090909  0.45454545       0.018
   0.45454545  0.09090909  0.45454545       0.009
   0.18181818  0.18181818  0.45454545       0.009
   0.27272727  0.18181818  0.45454545       0.018
   0.36363636  0.18181818  0.45454545       0.018
   0.27272727  0.27272727  0.45454545       0.009
   0.36363636  0.27272727  0.45454545       0.009
 
 position of ions in fractional coordinates (direct lattice) 
   0.33333300  0.66666700  0.25000000
   0.66666700  0.33333300  0.75000000
 
 position of ions in cartesian coordinates  (Angst):
  -0.00000150  1.73658153  1.48549075
   1.50392450  0.86828947  4.45647225
 


--------------------------------------------------------------------------------------------------------


 k-point  1 :   0.0000 0.0000 0.0000  plane waves:    1523
 k-point  2 :   0.0909-0.0000 0.0000  plane waves:    1529
 k-point  3 :   0.1818-0.0000 0.0000  plane waves:    1547
 k-point  4 :   0.2727 0.0000 0.0000  plane waves:    1542
 k-point  5 :   0.3636-0.0000 0.0000  plane waves:    1556
 k-point  6 :   0.4545-0.0000 0.0000  plane waves:    1554
 k-point  7 :   0.0909 0.0909 0.0000  plane waves:    1546
 k-point  8 :   0.1818 0.0909 0.0000  plane waves:    1546
 k-point  9 :   0.2727 0.0909 0.0000  plane waves:    1557
 k-point 10 :   0.3636 0.0909 0.0000  plane waves:    1551
 k-point 11 :   0.4545 0.0909 0.0000  plane waves:    1546
 k-point 12 :   0.1818 0.1818 0.0000  plane waves:    1556
 k-point 13 :   0.2727 0.1818 0.0000  plane waves:    1552
 k-point 14 :   0.3636 0.1818 0.0000  plane waves:    1566
 k-point 15 :   0.2727 0.2727 0.0000  plane waves:    1560
 k-point 16 :   0.3636 0.2727 0.0000  plane waves:    1564
 k-point 17 :   0.0000 0.0000 0.0909  plane waves:    1529
 k-point 18 :   0.0909-0.0000 0.0909  plane waves:    1533
 k-point 19 :   0.1818-0.0000 0.0909  plane waves:    1545
 k-point 20 :   0.2727 0.0000 0.0909  plane waves:    1555
 k-point 21 :   0.3636-0.0000 0.0909  plane waves:    1549
 k-point 22 :   0.4545-0.0000 0.0909  plane waves:    1550
 k-point 23 :   0.0909 0.0909 0.0909  plane waves:    1544
 k-point 24 :   0.1818 0.0909 0.0909  plane waves:    1549
 k-point 25 :   0.2727 0.0909 0.0909  plane waves:    1556
 k-point 26 :   0.3636 0.0909 0.0909  plane waves:    1553
 k-point 27 :   0.4545 0.0909 0.0909  plane waves:    1558
 k-point 28 :   0.1818 0.1818 0.0909  plane waves:    1555
 k-point 29 :   0.2727 0.1818 0.0909  plane waves:    1551
 k-point 30 :   0.3636 0.1818 0.0909  plane waves:    1559
 k-point 31 :   0.2727 0.2727 0.0909  plane waves:    1565
 k-point 32 :   0.3636 0.2727 0.0909  plane waves:    1569
 k-point 33 :   0.0000 0.0000 0.1818  plane waves:    1536
 k-point 34 :   0.0909-0.0000 0.1818  plane waves:    1533
 k-point 35 :   0.1818-0.0000 0.1818  plane waves:    1549
 k-point 36 :   0.2727 0.0000 0.1818  plane waves:    1547
 k-point 37 :   0.3636-0.0000 0.1818  plane waves:    1540
 k-point 38 :   0.4545-0.0000 0.1818  plane waves:    1545
 k-point 39 :   0.0909 0.0909 0.1818  plane waves:    1548
 k-point 40 :   0.1818 0.0909 0.1818  plane waves:    1550
 k-point 41 :   0.2727 0.0909 0.1818  plane waves:    1550
 k-point 42 :   0.3636 0.0909 0.1818  plane waves:    1555
 k-point 43 :   0.4545 0.0909 0.1818  plane waves:    1552
 k-point 44 :   0.1818 0.1818 0.1818  plane waves:    1554
 k-point 45 :   0.2727 0.1818 0.1818  plane waves:    1554
 k-point 46 :   0.3636 0.1818 0.1818  plane waves:    1564
 k-point 47 :   0.2727 0.2727 0.1818  plane waves:    1570
 k-point 48 :   0.3636 0.2727 0.1818  plane waves:    1575
 k-point 49 :   0.0000 0.0000 0.2727  plane waves:    1518
 k-point 50 :   0.0909-0.0000 0.2727  plane waves:    1529
 k-point 51 :   0.1818-0.0000 0.2727  plane waves:    1548
 k-point 52 :   0.2727 0.0000 0.2727  plane waves:    1549
 k-point 53 :   0.3636-0.0000 0.2727  plane waves:    1547
 k-point 54 :   0.4545-0.0000 0.2727  plane waves:    1547
 k-point 55 :   0.0909 0.0909 0.2727  plane waves:    1540
 k-point 56 :   0.1818 0.0909 0.2727  plane waves:    1546
 k-point 57 :   0.2727 0.0909 0.2727  plane waves:    1550
 k-point 58 :   0.3636 0.0909 0.2727  plane waves:    1560
 k-point 59 :   0.4545 0.0909 0.2727  plane waves:    1567
 k-point 60 :   0.1818 0.1818 0.2727  plane waves:    1552
 k-point 61 :   0.2727 0.1818 0.2727  plane waves:    1557
 k-point 62 :   0.3636 0.1818 0.2727  plane waves:    1570
 k-point 63 :   0.2727 0.2727 0.2727  plane waves:    1572
 k-point 64 :   0.3636 0.2727 0.2727  plane waves:    1576
 k-point 65 :   0.0000 0.0000 0.3636  plane waves:    1524
 k-point 66 :   0.0909-0.0000 0.3636  plane waves:    1531
 k-point 67 :   0.1818-0.0000 0.3636  plane waves:    1545
 k-point 68 :   0.2727 0.0000 0.3636  plane waves:    1539
 k-point 69 :   0.3636-0.0000 0.3636  plane waves:    1549
 k-point 70 :   0.4545-0.0000 0.3636  plane waves:    1556
 k-point 71 :   0.0909 0.0909 0.3636  plane waves:    1543
 k-point 72 :   0.1818 0.0909 0.3636  plane waves:    1547
 k-point 73 :   0.2727 0.0909 0.3636  plane waves:    1549
 k-point 74 :   0.3636 0.0909 0.3636  plane waves:    1564
 k-point 75 :   0.4545 0.0909 0.3636  plane waves:    1559
 k-point 76 :   0.1818 0.1818 0.3636  plane waves:    1552
 k-point 77 :   0.2727 0.1818 0.3636  plane waves:    1561
 k-point 78 :   0.3636 0.1818 0.3636  plane waves:    1568
 k-point 79 :   0.2727 0.2727 0.3636  plane waves:    1563
 k-point 80 :   0.3636 0.2727 0.3636  plane waves:    1572
 k-point 81 :   0.0000 0.0000 0.4545  plane waves:    1560
 k-point 82 :   0.0909-0.0000 0.4545  plane waves:    1538
 k-point 83 :   0.1818-0.0000 0.4545  plane waves:    1537
 k-point 84 :   0.2727 0.0000 0.4545  plane waves:    1545
 k-point 85 :   0.3636-0.0000 0.4545  plane waves:    1542
 k-point 86 :   0.4545-0.0000 0.4545  plane waves:    1563
 k-point 87 :   0.0909 0.0909 0.4545  plane waves:    1547
 k-point 88 :   0.1818 0.0909 0.4545  plane waves:    1553
 k-point 89 :   0.2727 0.0909 0.4545  plane waves:    1550
 k-point 90 :   0.3636 0.0909 0.4545  plane waves:    1566
 k-point 91 :   0.4545 0.0909 0.4545  plane waves:    1556
 k-point 92 :   0.1818 0.1818 0.4545  plane waves:    1552
 k-point 93 :   0.2727 0.1818 0.4545  plane waves:    1566
 k-point 94 :   0.3636 0.1818 0.4545  plane waves:    1564
 k-point 95 :   0.2727 0.2727 0.4545  plane waves:    1563
 k-point 96 :   0.3636 0.2727 0.4545  plane waves:    1566

 maximum and minimum number of plane-waves per node :       208      181

 maximum number of plane-waves:      1576
 maximum index in each direction: 
   IXMAX=    6   IYMAX=    6   IZMAX=   11
   IXMIN=   -6   IYMIN=   -6   IZMIN=  -12

 WARNING: aliasing errors must be expected set NGX to  26 to avoid them
 WARNING: aliasing errors must be expected set NGY to  26 to avoid them
 NGZ is ok and might be reduce to  48
 aliasing errors are usually negligible using standard VASP settings
 and one can safely disregard these warnings

 parallel 3D FFT for wavefunctions:
    minimum data exchange during FFTs selected (reduces bandwidth)
 parallel 3D FFT for charge:
    minimum data exchange during FFTs selected (reduces bandwidth)


 total amount of memory used by VASP on root node    35124. kBytes
========================================================================

   base      :      30000. kBytes
   nonl-proj :       2771. kBytes
   fftplans  :        400. kBytes
   grid      :        587. kBytes
   one-center:         15. kBytes
   wavefun   :       1351. kBytes
 
     INWAV:  cpu time    0.00: real time    0.00
 Broyden mixing: mesh for mixing (old mesh)
   NGX = 13   NGY = 13   NGZ = 23
  (NGX  = 48   NGY  = 48   NGZ  = 96)
  gives a total of   3887 points

 initial charge density was supplied:
 charge density of overlapping atoms calculated
 number of electron      24.0000000 magnetization 
 keeping initial charge density in first step


--------------------------------------------------------------------------------------------------------


 Maximum index for augmentation-charges         1256 (set IRDMAX)


--------------------------------------------------------------------------------------------------------


 First call to EWALD:  gamma=   0.493
 Maximum number of real-space cells 4x 4x 2
 Maximum number of reciprocal cells 2x 2x 4

 FEWALD executed in parallel
    FEWALD:  cpu time    0.00: real time    0.00


----------------------------------------- Iteration    1(   1)  ---------------------------------------


    POTLOK:  cpu time    0.02: real time    0.02
    SETDIJ:  cpu time    0.00: real time    0.00
     EDDAV:  cpu time    0.82: real time    0.84
 BZINTS: Fermi energy:  9.550331; 24.000000 electrons
         Band energy:  60.383110;  BLOECHL correction:  0.000000
       DOS:  cpu time    0.06: real time    0.06
    --------------------------------------------
      LOOP:  cpu time    0.89: real time    0.92

 eigenvalue-minimisations  :  3072
 total energy-change (2. order) : 0.1784895E+03  (-0.1429946E+04)
 number of electron      24.0000000 magnetization 
 augmentation part       24.0000000 magnetization 

 Free energy of the ion-electron system (eV)
  ---------------------------------------------------
  alpha Z        PSCENC =       191.27175744
  Ewald energy   TEWEN  =     -2084.45956420
  -Hartree energ DENC   =      -653.55404922
  -exchange      EXHF   =         0.00000000
  -V(xc)+E(xc)   XCENC  =        10.93163407
  PAW double counting   =      2393.37211021    -2325.81029501
  entropy T*S    EENTRO =         0.00000000
  eigenvalues    EBANDS =        60.38310979
  atomic energy  EATOM  =      2586.35480926
  ---------------------------------------------------
  free energy    TOTEN  =       178.48951234 eV

  energy without entropy =      178.48951234  energy(sigma->0) =      178.48951234


--------------------------------------------------------------------------------------------------------




----------------------------------------- Iteration    1(   2)  ---------------------------------------


     EDDAV:  cpu time    0.80: real time    0.80
 BZINTS: Fermi energy:  2.705331; 24.000000 electrons
         Band energy:-115.794864;  BLOECHL correction:  0.000000
       DOS:  cpu time    0.06: real time    0.05
    --------------------------------------------
      LOOP:  cpu time    0.85: real time    0.86

 eigenvalue-minimisations  :  3144
 total energy-change (2. order) :-0.1761780E+03  (-0.1722327E+03)
 number of electron      24.0000000 magnetization 
 augmentation part       24.0000000 magnetization 

 Free energy of the ion-electron system (eV)
  ---------------------------------------------------
  alpha Z        PSCENC =       191.27175744
  Ewald energy   TEWEN  =     -2084.45956420
  -Hartree energ DENC   =      -653.55404922
  -exchange      EXHF   =         0.00000000
  -V(xc)+E(xc)   XCENC  =        10.93163407
  PAW double counting   =      2393.37211021    -2325.81029501
  entropy T*S    EENTRO =         0.00000000
  eigenvalues    EBANDS =      -115.79486439
  atomic energy  EATOM  =      2586.35480926
  ---------------------------------------------------
  free energy    TOTEN  =         2.31153817 eV

  energy without entropy =        2.31153817  energy(sigma->0) =        2.31153817


--------------------------------------------------------------------------------------------------------




----------------------------------------- Iteration    1(   3)  ---------------------------------------


     EDDAV:  cpu time    0.91: real time    0.91
 BZINTS: Fermi energy:  2.560248; 24.000000 electrons
         Band energy:-119.595540;  BLOECHL correction:  0.000000
       DOS:  cpu time    0.06: real time    0.06
    --------------------------------------------
      LOOP:  cpu time    0.97: real time    0.97

 eigenvalue-minimisations  :  3760
 total energy-change (2. order) :-0.3800675E+01  (-0.3795828E+01)
 number of electron      24.0000000 magnetization 
 augmentation part       24.0000000 magnetization 

 Free energy of the ion-electron system (eV)
  ---------------------------------------------------
  alpha Z        PSCENC =       191.27175744
  Ewald energy   TEWEN  =     -2084.45956420
  -Hartree energ DENC   =      -653.55404922
  -exchange      EXHF   =         0.00000000
  -V(xc)+E(xc)   XCENC  =        10.93163407
  PAW double counting   =      2393.37211021    -2325.81029501
  entropy T*S    EENTRO =         0.00000000
  eigenvalues    EBANDS =      -119.59553986
  atomic energy  EATOM  =      2586.35480926
  ---------------------------------------------------
  free energy    TOTEN  =        -1.48913730 eV

  energy without entropy =       -1.48913730  energy(sigma->0) =       -1.48913730


--------------------------------------------------------------------------------------------------------




----------------------------------------- Iteration    1(   4)  ---------------------------------------


     EDDAV:  cpu time    0.89: real time    0.89
 BZINTS: Fermi energy:  2.560090; 24.000000 electrons
         Band energy:-119.600418;  BLOECHL correction:  0.000000
       DOS:  cpu time    0.06: real time    0.06
    --------------------------------------------
      LOOP:  cpu time    0.94: real time    0.95

 eigenvalue-minimisations  :  3632
 total energy-change (2. order) :-0.4878018E-02  (-0.4877887E-02)
 number of electron      24.0000000 magnetization 
 augmentation part       24.0000000 magnetization 

 Free energy of the ion-electron system (eV)
  ---------------------------------------------------
  alpha Z        PSCENC =       191.27175744
  Ewald energy   TEWEN  =     -2084.45956420
  -Hartree energ DENC   =      -653.55404922
  -exchange      EXHF   =         0.00000000
  -V(xc)+E(xc)   XCENC  =        10.93163407
  PAW double counting   =      2393.37211021    -2325.81029501
  entropy T*S    EENTRO =         0.00000000
  eigenvalues    EBANDS =      -119.60041787
  atomic energy  EATOM  =      2586.35480926
  ---------------------------------------------------
  free energy    TOTEN  =        -1.49401532 eV

  energy without entropy =       -1.49401532  energy(sigma->0) =       -1.49401532


--------------------------------------------------------------------------------------------------------




----------------------------------------- Iteration    1(   5)  ---------------------------------------


     EDDAV:  cpu time    0.94: real time    0.94
 BZINTS: Fermi energy:  2.560090; 24.000000 electrons
         Band energy:-119.600432;  BLOECHL correction:  0.000000
       DOS:  cpu time    0.06: real time    0.06
    CHARGE:  cpu time    0.04: real time    0.04
    MIXING:  cpu time    0.00: real time    0.00
    --------------------------------------------
      LOOP:  cpu time    1.04: real time    1.05

 eigenvalue-minimisations  :  3904
 total energy-change (2. order) :-0.1418211E-04  (-0.1418233E-04)
 number of electron      24.0000003 magnetization 
 augmentation part       11.3098957 magnetization 

 Broyden mixing:
  rms(total) = 0.38050E+00    rms(broyden)= 0.38050E+00
  rms(prec ) = 0.47383E+00
  weight for this iteration     100.00

 Free energy of the ion-electron system (eV)
  ---------------------------------------------------
  alpha Z        PSCENC =       191.27175744
  Ewald energy   TEWEN  =     -2084.45956420
  -Hartree energ DENC   =      -653.55404922
  -exchange      EXHF   =         0.00000000
  -V(xc)+E(xc)   XCENC  =        10.93163407
  PAW double counting   =      2393.37211021    -2325.81029501
  entropy T*S    EENTRO =         0.00000000
  eigenvalues    EBANDS =      -119.60043206
  atomic energy  EATOM  =      2586.35480926
  ---------------------------------------------------
  free energy    TOTEN  =        -1.49402950 eV

  energy without entropy =       -1.49402950  energy(sigma->0) =       -1.49402950


--------------------------------------------------------------------------------------------------------




----------------------------------------- Iteration    1(   6)  ---------------------------------------


    POTLOK:  cpu time    0.01: real time    0.01
    SETDIJ:  cpu time    0.00: real time    0.00
     EDDAV:  cpu time    0.83: real time    0.84
 BZINTS: Fermi energy:  2.463238; 24.000000 electrons
         Band energy:-128.700851;  BLOECHL correction:  0.000000
       DOS:  cpu time    0.06: real time    0.05
    CHARGE:  cpu time    0.03: real time    0.03
    MIXING:  cpu time    0.00: real time    0.00
    --------------------------------------------
      LOOP:  cpu time    0.94: real time    0.94

 eigenvalue-minimisations  :  3320
 total energy-change (2. order) : 0.8460394E-01  (-0.2631871E-01)
 number of electron      24.0000003 magnetization 
 augmentation part       11.4066492 magnetization 

 Broyden mixing:
  rms(total) = 0.31104E+00    rms(broyden)= 0.31104E+00
  rms(prec ) = 0.33123E+00
  weight for this iteration     100.00

 eigenvalues of (default mixing * dielectric matrix)
  average eigenvalue GAMMA=   1.5044
  1.5044

 Free energy of the ion-electron system (eV)
  ---------------------------------------------------
  alpha Z        PSCENC =       191.27175744
  Ewald energy   TEWEN  =     -2084.45956420
  -Hartree energ DENC   =      -644.35891598
  -exchange      EXHF   =         0.00000000
  -V(xc)+E(xc)   XCENC  =        10.58065574
  PAW double counting   =      2438.70743170    -2370.80474845
  entropy T*S    EENTRO =         0.00000000
  eigenvalues    EBANDS =      -128.70085107
  atomic energy  EATOM  =      2586.35480926
  ---------------------------------------------------
  free energy    TOTEN  =        -1.40942556 eV

  energy without entropy =       -1.40942556  energy(sigma->0) =       -1.40942556


--------------------------------------------------------------------------------------------------------




----------------------------------------- Iteration    1(   7)  ---------------------------------------


    POTLOK:  cpu time    0.01: real time    0.01
    SETDIJ:  cpu time    0.00: real time    0.00
     EDDAV:  cpu time    0.87: real time    0.87
 BZINTS: Fermi energy:  2.418899; 24.000000 electrons
         Band energy:-131.933359;  BLOECHL correction:  0.000000
       DOS:  cpu time    0.05: real time    0.05
    CHARGE:  cpu time    0.04: real time    0.03
    MIXING:  cpu time    0.00: real time    0.00
    --------------------------------------------
      LOOP:  cpu time    0.96: real time    0.97

 eigenvalue-minimisations  :  3520
 total energy-change (2. order) : 0.2946383E-02  (-0.2622558E-02)
 number of electron      24.0000003 magnetization 
 augmentation part       11.4328657 magnetization 

 Broyden mixing:
  rms(total) = 0.15721E+00    rms(broyden)= 0.15721E+00
  rms(prec ) = 0.16408E+00
  weight for this iteration     100.00

 eigenvalues of (default mixing * dielectric matrix)
  average eigenvalue GAMMA=   1.8529
  1.2009  2.5048

 Free energy of the ion-electron system (eV)
  ---------------------------------------------------
  alpha Z        PSCENC =       191.27175744
  Ewald energy   TEWEN  =     -2084.45956420
  -Hartree energ DENC   =      -640.93740205
  -exchange      EXHF   =         0.00000000
  -V(xc)+E(xc)   XCENC  =        10.44710510
  PAW double counting   =      2474.32073763    -2406.47056346
  entropy T*S    EENTRO =         0.00000000
  eigenvalues    EBANDS =      -131.93335891
  atomic energy  EATOM  =      2586.35480926
  ---------------------------------------------------
  free energy    TOTEN  =        -1.40647918 eV

  energy without entropy =       -1.40647918  energy(sigma->0) =       -1.40647918


--------------------------------------------------------------------------------------------------------




----------------------------------------- Iteration    1(   8)  ---------------------------------------


    POTLOK:  cpu time    0.01: real time    0.01
    SETDIJ:  cpu time    0.00: real time    0.00
     EDDAV:  cpu time    0.84: real time    0.84
 BZINTS: Fermi energy:  2.400235; 24.000000 electrons
         Band energy:-132.595067;  BLOECHL correction:  0.000000
       DOS:  cpu time    0.06: real time    0.06
    CHARGE:  cpu time    0.03: real time    0.03
    MIXING:  cpu time    0.00: real time    0.00
    --------------------------------------------
      LOOP:  cpu time    0.94: real time    0.95

 eigenvalue-minimisations  :  3344
 total energy-change (2. order) :-0.6898797E-03  (-0.3428596E-03)
 number of electron      24.0000003 magnetization 
 augmentation part       11.4311850 magnetization 

 Broyden mixing:
  rms(total) = 0.86787E-02    rms(broyden)= 0.86784E-02
  rms(prec ) = 0.97805E-02
  weight for this iteration     100.00

 eigenvalues of (default mixing * dielectric matrix)
  average eigenvalue GAMMA=   1.6104
  2.4260  1.2025  1.2025

 Free energy of the ion-electron system (eV)
  ---------------------------------------------------
  alpha Z        PSCENC =       191.27175744
  Ewald energy   TEWEN  =     -2084.45956420
  -Hartree energ DENC   =      -640.10665473
  -exchange      EXHF   =         0.00000000
  -V(xc)+E(xc)   XCENC  =        10.41307105
  PAW double counting   =      2499.61365489    -2431.89917571
  entropy T*S    EENTRO =         0.00000000
  eigenvalues    EBANDS =      -132.59506706
  atomic energy  EATOM  =      2586.35480926
  ---------------------------------------------------
  free energy    TOTEN  =        -1.40716906 eV

  energy without entropy =       -1.40716906  energy(sigma->0) =       -1.40716906


--------------------------------------------------------------------------------------------------------




----------------------------------------- Iteration    1(   9)  ---------------------------------------


    POTLOK:  cpu time    0.01: real time    0.01
    SETDIJ:  cpu time    0.00: real time    0.00
     EDDAV:  cpu time    0.91: real time    0.91
 BZINTS: Fermi energy:  2.399036; 24.000000 electrons
         Band energy:-132.670955;  BLOECHL correction:  0.000000
       DOS:  cpu time    0.06: real time    0.06
    CHARGE:  cpu time    0.03: real time    0.03
    MIXING:  cpu time    0.00: real time    0.00
    --------------------------------------------
      LOOP:  cpu time    1.02: real time    1.02

 eigenvalue-minimisations  :  3728
 total energy-change (2. order) :-0.5647451E-04  (-0.4483899E-05)
 number of electron      24.0000003 magnetization 
 augmentation part       11.4319895 magnetization 

 Broyden mixing:
  rms(total) = 0.32637E-02    rms(broyden)= 0.32637E-02
  rms(prec ) = 0.45495E-02
  weight for this iteration     100.00

 eigenvalues of (default mixing * dielectric matrix)
  average eigenvalue GAMMA=   1.8800
  0.9756  1.1800  2.5065  2.8577

 Free energy of the ion-electron system (eV)
  ---------------------------------------------------
  alpha Z        PSCENC =       191.27175744
  Ewald energy   TEWEN  =     -2084.45956420
  -Hartree energ DENC   =      -640.05995718
  -exchange      EXHF   =         0.00000000
  -V(xc)+E(xc)   XCENC  =        10.41105599
  PAW double counting   =      2501.62072355    -2433.87509529
  entropy T*S    EENTRO =         0.00000000
  eigenvalues    EBANDS =      -132.67095510
  atomic energy  EATOM  =      2586.35480926
  ---------------------------------------------------
  free energy    TOTEN  =        -1.40722553 eV

  energy without entropy =       -1.40722553  energy(sigma->0) =       -1.40722553


--------------------------------------------------------------------------------------------------------




----------------------------------------- Iteration    1(  10)  ---------------------------------------


    POTLOK:  cpu time    0.01: real time    0.01
    SETDIJ:  cpu time    0.00: real time    0.00
     EDDAV:  cpu time    0.73: real time    0.73
 BZINTS: Fermi energy:  2.397504; 24.000000 electrons
         Band energy:-132.711752;  BLOECHL correction:  0.000000
       DOS:  cpu time    0.05: real time    0.05
    CHARGE:  cpu time    0.03: real time    0.03
    MIXING:  cpu time    0.00: real time    0.00
    --------------------------------------------
      LOOP:  cpu time    0.82: real time    0.83

 eigenvalue-minimisations  :  2616
 total energy-change (2. order) :-0.3744648E-04  (-0.3651748E-05)
 number of electron      24.0000003 magnetization 
 augmentation part       11.4319852 magnetization 

 Broyden mixing:
  rms(total) = 0.30030E-03    rms(broyden)= 0.30021E-03
  rms(prec ) = 0.31535E-03
  weight for this iteration     100.00

 eigenvalues of (default mixing * dielectric matrix)
  average eigenvalue GAMMA=   1.6608
  2.7819  2.4910  1.1824  0.9244  0.9244

 Free energy of the ion-electron system (eV)
  ---------------------------------------------------
  alpha Z        PSCENC =       191.27175744
  Ewald energy   TEWEN  =     -2084.45956420
  -Hartree energ DENC   =      -640.04591973
  -exchange      EXHF   =         0.00000000
  -V(xc)+E(xc)   XCENC  =        10.41012428
  PAW double counting   =      2504.64014732    -2436.86686522
  entropy T*S    EENTRO =         0.00000000
  eigenvalues    EBANDS =      -132.71175213
  atomic energy  EATOM  =      2586.35480926
  ---------------------------------------------------
  free energy    TOTEN  =        -1.40726298 eV

  energy without entropy =       -1.40726298  energy(sigma->0) =       -1.40726298


--------------------------------------------------------------------------------------------------------




----------------------------------------- Iteration    1(  11)  ---------------------------------------


    POTLOK:  cpu time    0.01: real time    0.01
    SETDIJ:  cpu time    0.00: real time    0.00
     EDDAV:  cpu time    0.60: real time    0.61
 BZINTS: Fermi energy:  2.397514; 24.000000 electrons
         Band energy:-132.711445;  BLOECHL correction:  0.000000
       DOS:  cpu time    0.05: real time    0.05
    --------------------------------------------
      LOOP:  cpu time    0.67: real time    0.68

 eigenvalue-minimisations  :  1808
 total energy-change (2. order) : 0.1159665E-06  (-0.2755232E-07)
 number of electron      24.0000003 magnetization 
 augmentation part       11.4319852 magnetization 

 Free energy of the ion-electron system (eV)
  ---------------------------------------------------
  alpha Z        PSCENC =       191.27175744
  Ewald energy   TEWEN  =     -2084.45956420
  -Hartree energ DENC   =      -640.04590210
  -exchange      EXHF   =         0.00000000
  -V(xc)+E(xc)   XCENC  =        10.41011893
  PAW double counting   =      2504.47591448    -2436.70295157
  entropy T*S    EENTRO =         0.00000000
  eigenvalues    EBANDS =      -132.71144511
  atomic energy  EATOM  =      2586.35480926
  ---------------------------------------------------
  free energy    TOTEN  =        -1.40726286 eV

  energy without entropy =       -1.40726286  energy(sigma->0) =       -1.40726286


--------------------------------------------------------------------------------------------------------




 average (electrostatic) potential at core
  the test charge radii are     1.0698
  (the norm of the test charge is              1.0000)
       1 -39.8348       2 -39.8348
 
 
 
 E-fermi :   2.3975     XC(G=0): -10.6229     alpha+bet : -6.3192


 k-point     1 :       0.0000    0.0000    0.0000
  band No.  band energies     occupation 
      1      -7.2114      2.00000
      2      -7.0419      2.00000
      3      -6.6574      2.00000
      4      -6.6574      2.00000
      5      -6.6240      2.00000
      6      -6.6240      2.00000
      7      -6.1417      2.00000
      8      -6.1417      2.00000
      9      -5.9754      2.00000
     10      -5.9754      2.00000
     11      -5.8835      2.00000
     12      -1.0711      2.00000
     13      -0.3813      2.00000
     14      11.4381      0.00000
     15      15.5424      0.00000
     16      17.0012      0.00000

 k-point     2 :       0.0909   -0.0000    0.0000
  band No.  band energies     occupation 
      1      -7.1335      2.00000
      2      -6.9737      2.00000
      3      -6.6849      2.00000
      4      -6.6494      2.00000
      5      -6.5863      2.00000
      6      -6.5547      2.00000
      7      -6.2012      2.00000
      8      -6.1633      2.00000
      9      -6.0660      2.00000
     10      -5.9773      2.00000
     11      -5.7041      2.00000
     12      -0.9438      2.00000
     13      -0.0861      2.00000
     14      11.6952      0.00000
     15      14.4615      0.00000
     16      15.5767      0.00000

 k-point     3 :       0.1818   -0.0000    0.0000
  band No.  band energies     occupation 
      1      -7.0348      2.00000
      2      -6.8790      2.00000
      3      -6.7264      2.00000
      4      -6.6045      2.00000
      5      -6.3922      2.00000
      6      -6.3908      2.00000
      7      -6.3644      2.00000
      8      -6.2424      2.00000
      9      -6.2171      2.00000
     10      -5.9861      2.00000
     11      -5.1003      2.00000
     12      -0.5265      2.00000
     13       0.7318      2.00000
     14      11.0202      0.00000
     15      12.3863      0.00000
     16      14.1866      0.00000

 k-point     4 :       0.2727    0.0000    0.0000
  band No.  band energies     occupation 
      1      -7.1290      2.00000
      2      -6.9797      2.00000
      3      -6.6496      2.00000
      4      -6.5682      2.00000
      5      -6.4098      2.00000
      6      -6.3810      2.00000
      7      -6.2819      2.00000
      8      -6.1231      2.00000
      9      -6.1042      2.00000
     10      -6.0026      2.00000
     11      -4.0104      2.00000
     12       0.2693      2.00000
     13       1.9460      1.34247
     14       7.7338      0.00000
     15      11.6705      0.00000
     16      12.2606      0.00000

 k-point     5 :       0.3636   -0.0000    0.0000
  band No.  band energies     occupation 
      1      -7.2614      2.00000
      2      -7.1178      2.00000
      3      -6.8608      2.00000
      4      -6.5487      2.00000
      5      -6.4056      2.00000
      6      -6.3382      2.00000
      7      -6.1448      2.00000
      8      -6.0208      2.00000
      9      -5.8651      2.00000
     10      -5.8518      2.00000
     11      -2.4555      2.00000
     12       1.5174      2.00000
     13       3.4473      0.01093
     14       4.7298      0.00000
     15       8.5819      0.00000
     16      10.0003      0.00000

 k-point     6 :       0.4545   -0.0000    0.0000
  band No.  band energies     occupation 
      1      -7.3438      2.00000
      2      -7.2014      2.00000
      3      -6.9753      2.00000
      4      -6.6282      2.00000
      5      -6.3705      2.00000
      6      -6.3124      2.00000
      7      -6.0324      2.00000
      8      -6.0117      2.00000
      9      -5.7072      2.00000
     10      -5.6935      2.00000
     11      -0.4894      2.00000
     12       1.8345      1.99999
     13       3.4501      0.00000
     14       5.0389      0.00000
     15       5.8957      0.00000
     16       7.9307      0.00000

 k-point     7 :       0.0909    0.0909    0.0000
  band No.  band energies     occupation 
      1      -7.0099      2.00000
      2      -6.8816      2.00000
      3      -6.7274      2.00000
      4      -6.6956      2.00000
      5      -6.4384      2.00000
      6      -6.4326      2.00000
      7      -6.2872      2.00000
      8      -6.2861      2.00000
      9      -6.1422      2.00000
     10      -5.9925      2.00000
     11      -5.3017      2.00000
     12      -0.6704      2.00000
     13       0.4691      2.00000
     14      12.1802      0.00000
     15      12.7320      0.00000
     16      12.9464      0.00000

 k-point     8 :       0.1818    0.0909    0.0000
  band No.  band energies     occupation 
      1      -6.9855      2.00000
      2      -6.8311      2.00000
      3      -6.7349      2.00000
      4      -6.5840      2.00000
      5      -6.5315      2.00000
      6      -6.3990      2.00000
      7      -6.2562      2.00000
      8      -6.2225      2.00000
      9      -6.1759      2.00000
     10      -6.0177      2.00000
     11      -4.4280      2.00000
     12      -0.0560      2.00000
     13       1.4807      1.83663
     14       9.4577      0.00000
     15      11.4540      0.00000
     16      12.8475      0.00000

 k-point     9 :       0.2727    0.0909    0.0000
  band No.  band energies     occupation 
      1      -7.1196      2.00000
      2      -6.9736      2.00000
      3      -6.7612      2.00000
      4      -6.5143      2.00000
      5      -6.5120      2.00000
      6      -6.3368      2.00000
      7      -6.3137      2.00000
      8      -6.0429      2.00000
      9      -6.0419      2.00000
     10      -5.9297      2.00000
     11      -3.0903      2.00000
     12       0.9919      2.00000
     13       2.8377      0.24164
     14       6.3131      0.00000
     15      10.0552      0.00000
     16      10.5570      0.00000

 k-point    10 :       0.3636    0.0909    0.0000
  band No.  band energies     occupation 
      1      -7.2316      2.00000
      2      -7.0852      2.00000
      3      -6.9160      2.00000
      4      -6.5956      2.00000
      5      -6.3822      2.00000
      6      -6.3574      2.00000
      7      -6.1139      2.00000
      8      -6.0628      2.00000
      9      -5.8540      2.00000
     10      -5.7797      2.00000
     11      -1.3246      2.00000
     12       2.4338      1.86597
     13       3.5563      0.00000
     14       4.4288      0.00000
     15       7.2972      0.00000
     16       9.0157      0.00000

 k-point    11 :       0.4545    0.0909    0.0000
  band No.  band energies     occupation 
      1      -7.2736      2.00000
      2      -7.1268      2.00000
      3      -6.9700      2.00000
      4      -6.6264      2.00000
      5      -6.4073      2.00000
      6      -6.3014      2.00000
      7      -6.0704      2.00000
      8      -6.0231      2.00000
      9      -5.7633      2.00000
     10      -5.7495      2.00000
     11       0.6722      2.00000
     12       0.9989      1.98590
     13       4.2812      0.00000
     14       5.1911      0.00000
     15       5.6365      0.00000
     16       7.5627      0.00000

 k-point    12 :       0.1818    0.1818    0.0000
  band No.  band energies     occupation 
      1      -6.8903      2.00000
      2      -6.8510      2.00000
      3      -6.6926      2.00000
      4      -6.6425      2.00000
      5      -6.5558      2.00000
      6      -6.5289      2.00000
      7      -6.2808      2.00000
      8      -6.1700      2.00000
      9      -6.0769      2.00000
     10      -5.9375      2.00000
     11      -3.2801      2.00000
     12       0.8284      2.00000
     13       2.6314      0.43408
     14       7.9939      0.00000
     15       8.4717      0.00000
     16      12.0638      0.00000

 k-point    13 :       0.2727    0.1818    0.0000
  band No.  band energies     occupation 
      1      -6.9784      2.00000
      2      -6.8516      2.00000
      3      -6.8308      2.00000
      4      -6.5931      2.00000
      5      -6.4955      2.00000
      6      -6.3812      2.00000
      7      -6.3302      2.00000
      8      -6.1279      2.00000
      9      -6.1004      2.00000
     10      -5.8198      2.00000
     11      -1.7118      2.00000
     12       2.1868      1.51999
     13       4.0965      0.00000
     14       5.2358      0.00000
     15       7.3637      0.00000
     16       9.2219      0.00000

 k-point    14 :       0.3636    0.1818    0.0000
  band No.  band energies     occupation 
      1      -7.0429      2.00000
      2      -6.9068      2.00000
      3      -6.8904      2.00000
      4      -6.5999      2.00000
      5      -6.4724      2.00000
      6      -6.3389      2.00000
      7      -6.1560      2.00000
      8      -6.1531      2.00000
      9      -6.0117      2.00000
     10      -5.8577      2.00000
     11       0.2402      2.00000
     12       2.5391      0.82805
     13       4.0624      0.00000
     14       5.7097      0.00000
     15       6.3402      0.00000
     16       7.1026      0.00000

 k-point    15 :       0.2727    0.2727    0.0000
  band No.  band energies     occupation 
      1      -6.8545      2.00000
      2      -6.7871      2.00000
      3      -6.7369      2.00000
      4      -6.6154      2.00000
      5      -6.4786      2.00000
      6      -6.4289      2.00000
      7      -6.2816      2.00000
      8      -6.2193      2.00000
      9      -6.2113      2.00000
     10      -5.8791      2.00000
     11       0.0511      2.00000
     12       3.8622      0.06730
     13       4.3686      0.00000
     14       4.8480      0.00000
     15       5.6468      0.00000
     16       8.4559      0.00000

 k-point    16 :       0.3636    0.2727    0.0000
  band No.  band energies     occupation 
      1      -6.8563      2.00000
      2      -6.7497      2.00000
      3      -6.6220      2.00000
      4      -6.5725      2.00000
      5      -6.5690      2.00000
      6      -6.3735      2.00000
      7      -6.3554      2.00000
      8      -6.2457      2.00000
      9      -6.1107      2.00000
     10      -6.0324      2.00000
     11       2.1048      2.00000
     12       2.2001      0.85296
     13       4.4055      0.00000
     14       5.7776      0.00000
     15       6.2381      0.00000
     16       7.0090      0.00000

 k-point    17 :       0.0000    0.0000    0.0909
  band No.  band energies     occupation 
      1      -7.2079      2.00000
      2      -7.0452      2.00000
      3      -6.6574      2.00000
      4      -6.6574      2.00000
      5      -6.6252      2.00000
      6      -6.6252      2.00000
      7      -6.1377      2.00000
      8      -6.1377      2.00000
      9      -5.9782      2.00000
     10      -5.9782      2.00000
     11      -5.8400      2.00000
     12      -1.6628      2.00000
     13       0.2835      2.00000
     14      10.9247      0.00000
     15      16.0911      0.00000
     16      17.0083      0.00000

 k-point    18 :       0.0909   -0.0000    0.0909
  band No.  band energies     occupation 
      1      -7.1301      2.00000
      2      -6.9764      2.00000
      3      -6.6850      2.00000
      4      -6.6508      2.00000
      5      -6.5864      2.00000
      6      -6.5560      2.00000
      7      -6.2012      2.00000
      8      -6.1588      2.00000
      9      -6.0696      2.00000
     10      -5.9804      2.00000
     11      -5.6562      2.00000
     12      -1.4819      2.00000
     13       0.5250      2.00000
     14      11.1626      0.00000
     15      14.4980      0.00000
     16      15.9611      0.00000

 k-point    19 :       0.1818   -0.0000    0.0909
  band No.  band energies     occupation 
      1      -7.0317      2.00000
      2      -6.8822      2.00000
      3      -6.7251      2.00000
      4      -6.6112      2.00000
      5      -6.3917      2.00000
      6      -6.3861      2.00000
      7      -6.3659      2.00000
      8      -6.2461      2.00000
      9      -6.2108      2.00000
     10      -5.9900      2.00000
     11      -5.0537      2.00000
     12      -0.9598      2.00000
     13       1.2367      1.96325
     14      11.0529      0.00000
     15      11.8150      0.00000
     16      14.2311      0.00000

 k-point    20 :       0.2727    0.0000    0.0909
  band No.  band energies     occupation 
      1      -7.1259      2.00000
      2      -6.9825      2.00000
      3      -6.6762      2.00000
      4      -6.5337      2.00000
      5      -6.4640      2.00000
      6      -6.3337      2.00000
      7      -6.2778      2.00000
      8      -6.1219      2.00000
      9      -6.1062      2.00000
     10      -6.0063      2.00000
     11      -3.9686      2.00000
     12      -0.0782      2.00000
     13       2.3624      0.83028
     14       7.7719      0.00000
     15      11.3095      0.00000
     16      12.1909      0.00000

 k-point    21 :       0.3636   -0.0000    0.0909
  band No.  band energies     occupation 
      1      -7.2581      2.00000
      2      -7.1209      2.00000
      3      -6.8663      2.00000
      4      -6.5748      2.00000
      5      -6.3842      2.00000
      6      -6.3322      2.00000
      7      -6.1314      2.00000
      8      -6.0281      2.00000
      9      -5.8646      2.00000
     10      -5.8514      2.00000
     11      -2.4175      2.00000
     12       1.2218      2.00000
     13       3.8037      0.00313
     14       4.7680      0.00000
     15       8.3023      0.00000
     16      10.2783      0.00000

 k-point    22 :       0.4545   -0.0000    0.0909
  band No.  band energies     occupation 
      1      -7.3404      2.00000
      2      -7.2050      2.00000
      3      -6.9775      2.00000
      4      -6.6501      2.00000
      5      -6.3640      2.00000
      6      -6.2943      2.00000
      7      -6.0397      2.00000
      8      -6.0013      2.00000
      9      -5.7069      2.00000
     10      -5.6937      2.00000
     11      -0.4551      2.00000
     12       1.8290      2.00000
     13       3.2341      0.00000
     14       5.0605      0.00000
     15       5.9937      0.00000
     16       8.1761      0.00000

 k-point    23 :       0.0909    0.0909    0.0909
  band No.  band energies     occupation 
      1      -7.0068      2.00000
      2      -6.8824      2.00000
      3      -6.7294      2.00000
      4      -6.6976      2.00000
      5      -6.4416      2.00000
      6      -6.4338      2.00000
      7      -6.2847      2.00000
      8      -6.2830      2.00000
      9      -6.1410      2.00000
     10      -5.9971      2.00000
     11      -5.2546      2.00000
     12      -1.1318      2.00000
     13       1.0026      1.99344
     14      11.6091      0.00000
     15      12.7709      0.00000
     16      12.9873      0.00000

 k-point    24 :       0.1818    0.0909    0.0909
  band No.  band energies     occupation 
      1      -6.9827      2.00000
      2      -6.8342      2.00000
      3      -6.7366      2.00000
      4      -6.5986      2.00000
      5      -6.5213      2.00000
      6      -6.4022      2.00000
      7      -6.2438      2.00000
      8      -6.2315      2.00000
      9      -6.1641      2.00000
     10      -6.0229      2.00000
     11      -4.3854      2.00000
     12      -0.4299      2.00000
     13       1.9250      1.45293
     14       9.4952      0.00000
     15      11.4879      0.00000
     16      12.3149      0.00000

 k-point    25 :       0.2727    0.0909    0.0909
  band No.  band energies     occupation 
      1      -7.1165      2.00000
      2      -6.9768      2.00000
      3      -6.7688      2.00000
      4      -6.5450      2.00000
      5      -6.4937      2.00000
      6      -6.3248      2.00000
      7      -6.3025      2.00000
      8      -6.0532      2.00000
      9      -6.0342      2.00000
     10      -5.9277      2.00000
     11      -3.0512      2.00000
     12       0.6782      2.00000
     13       3.2177      0.08318
     14       6.3521      0.00000
     15       9.8278      0.00000
     16      10.4905      0.00000

 k-point    26 :       0.3636    0.0909    0.0909
  band No.  band energies     occupation 
      1      -7.2282      2.00000
      2      -7.0891      2.00000
      3      -6.9176      2.00000
      4      -6.6180      2.00000
      5      -6.3879      2.00000
      6      -6.3298      2.00000
      7      -6.1019      2.00000
      8      -6.0700      2.00000
      9      -5.8533      2.00000
[...]
      1      -6.8496      2.00000
      2      -6.7757      2.00000
      3      -6.7434      2.00000
      4      -6.6705      2.00000
      5      -6.5595      2.00000
      6      -6.3855      2.00000
      7      -6.3221      2.00000
      8      -6.2707      2.00000
      9      -6.0088      2.00000
     10      -5.8917      2.00000
     11       0.6490      1.97895
     12       1.8839      1.78443
     13       4.9796      0.00000
     14       5.4529      0.00000
     15       6.2753      0.00000
     16       6.6180      0.00000

 k-point    80 :       0.3636    0.2727    0.3636
  band No.  band energies     occupation 
      1      -6.8040      2.00000
      2      -6.7514      2.00000
      3      -6.6870      2.00000
      4      -6.6645      2.00000
      5      -6.5708      2.00000
      6      -6.4115      2.00000
      7      -6.2744      2.00000
      8      -6.2665      2.00000
      9      -6.0445      2.00000
     10      -6.0022      2.00000
     11       2.6502      1.38404
     12       2.8080      0.59003
     13       3.9281      0.00000
     14       4.1163      0.00000
     15       5.0471      0.00000
     16       6.2692      0.00000

 k-point    81 :       0.0000    0.0000    0.4545
  band No.  band energies     occupation 
      1      -7.1382      2.00000
      2      -7.1139      2.00000
      3      -6.6505      2.00000
      4      -6.6505      2.00000
      5      -6.6456      2.00000
      6      -6.6456      2.00000
      7      -6.0628      2.00000
      8      -6.0628      2.00000
      9      -6.0394      2.00000
     10      -6.0394      2.00000
     11      -4.8011      2.00000
     12      -4.3284      2.00000
     13       4.6842      0.00000
     14       5.9364      0.00000
     15      17.2351      0.00000
     16      17.3748      0.00000

 k-point    82 :       0.0909   -0.0000    0.4545
  band No.  band energies     occupation 
      1      -7.0616      2.00000
      2      -7.0384      2.00000
      3      -6.6791      2.00000
      4      -6.6738      2.00000
      5      -6.5811      2.00000
      6      -6.5763      2.00000
      7      -6.1545      2.00000
      8      -6.1330      2.00000
      9      -6.0752      2.00000
     10      -6.0491      2.00000
     11      -4.5898      2.00000
     12      -4.1167      2.00000
     13       4.8900      0.00000
     14       6.1403      0.00000
     15      15.3252      0.00000
     16      15.6932      0.00000

 k-point    83 :       0.1818   -0.0000    0.4545
  band No.  band energies     occupation 
      1      -6.9693      2.00000
      2      -6.9471      2.00000
      3      -6.6948      2.00000
      4      -6.6812      2.00000
      5      -6.3926      2.00000
      6      -6.3880      2.00000
      7      -6.3187      2.00000
      8      -6.3022      2.00000
      9      -6.1055      2.00000
     10      -6.0738      2.00000
     11      -3.9827      2.00000
     12      -3.5097      2.00000
     13       5.4896      0.00000
     14       6.7297      0.00000
     15      11.9676      0.00000
     16      12.3717      0.00000

 k-point    84 :       0.2727    0.0000    0.4545
  band No.  band energies     occupation 
      1      -7.0633      2.00000
      2      -7.0416      2.00000
      3      -6.7305      2.00000
      4      -6.7009      2.00000
      5      -6.3010      2.00000
      6      -6.2684      2.00000
      7      -6.1967      2.00000
      8      -6.1707      2.00000
      9      -6.0820      2.00000
     10      -6.0662      2.00000
     11      -2.9562      2.00000
     12      -2.4969      2.00000
     13       6.4105      0.00000
     14       7.5693      0.00000
     15       8.8011      0.00000
     16       9.1772      0.00000

 k-point    85 :       0.3636   -0.0000    0.4545
  band No.  band energies     occupation 
      1      -7.1948      2.00000
      2      -7.1748      2.00000
      3      -6.8661      2.00000
      4      -6.8283      2.00000
      5      -6.2090      2.00000
      6      -6.1644      2.00000
      7      -6.1375      2.00000
      8      -6.0958      2.00000
      9      -5.8554      2.00000
     10      -5.8529      2.00000
     11      -1.4803      2.00000
     12      -1.0468      2.00000
     13       5.6287      0.00000
     14       5.9675      0.00000
     15       7.8797      0.00000
     16       8.9152      0.00000

 k-point    86 :       0.4545   -0.0000    0.4545
  band No.  band energies     occupation 
      1      -7.2769      2.00000
      2      -7.2581      2.00000
      3      -6.9515      2.00000
      4      -6.9089      2.00000
      5      -6.2300      2.00000
      6      -6.1819      2.00000
      7      -6.0378      2.00000
      8      -5.9890      2.00000
      9      -5.7006      2.00000
     10      -5.6986      2.00000
     11       0.3717      2.00000
     12       0.7403      2.00000
     13       3.0829      0.00000
     14       3.4305      0.00000
     15       9.1560      0.00000
     16       9.8019      0.00000

 k-point    87 :       0.0909    0.0909    0.4545
  band No.  band energies     occupation 
      1      -6.9444      2.00000
      2      -6.9241      2.00000
      3      -6.7357      2.00000
      4      -6.7289      2.00000
      5      -6.4538      2.00000
      6      -6.4503      2.00000
      7      -6.2643      2.00000
      8      -6.2643      2.00000
      9      -6.0941      2.00000
     10      -6.0719      2.00000
     11      -4.1819      2.00000
     12      -3.7086      2.00000
     13       5.2935      0.00000
     14       6.5381      0.00000
     15      13.6874      0.00000
     16      13.8385      0.00000

 k-point    88 :       0.1818    0.0909    0.4545
  band No.  band energies     occupation 
      1      -6.9239      2.00000
      2      -6.9017      2.00000
      3      -6.7266      2.00000
      4      -6.7092      2.00000
      5      -6.4475      2.00000
      6      -6.4363      2.00000
      7      -6.2231      2.00000
      8      -6.1994      2.00000
      9      -6.0918      2.00000
     10      -6.0799      2.00000
     11      -3.3587      2.00000
     12      -2.8948      2.00000
     13       6.0668      0.00000
     14       7.2883      0.00000
     15      10.4340      0.00000
     16      10.8378      0.00000

 k-point    89 :       0.2727    0.0909    0.4545
  band No.  band energies     occupation 
      1      -7.0544      2.00000
      2      -7.0334      2.00000
      3      -6.7933      2.00000
      4      -6.7642      2.00000
      5      -6.3127      2.00000
      6      -6.2794      2.00000
      7      -6.2218      2.00000
      8      -6.1861      2.00000
      9      -5.9443      2.00000
     10      -5.9271      2.00000
     11      -2.0900      2.00000
     12      -1.6472      2.00000
     13       6.9260      0.00000
     14       7.2091      0.00000
     15       7.9174      0.00000
     16       8.5234      0.00000

 k-point    90 :       0.3636    0.0909    0.4545
  band No.  band energies     occupation 
      1      -7.1632      2.00000
      2      -7.1436      2.00000
      3      -6.8995      2.00000
      4      -6.8619      2.00000
      5      -6.2740      2.00000
      6      -6.2236      2.00000
      7      -6.0967      2.00000
      8      -6.0603      2.00000
      9      -5.8171      2.00000
     10      -5.8021      2.00000
     11      -0.3930      2.00000
     12       0.0215      2.00000
     13       4.4214      0.00000
     14       4.7995      0.00000
     15       8.6427      0.00000
     16       9.5742      0.00000

 k-point    91 :       0.4545    0.0909    0.4545
  band No.  band energies     occupation 
      1      -7.2043      2.00000
      2      -7.1853      2.00000
      3      -6.9394      2.00000
      4      -6.8987      2.00000
      5      -6.2871      2.00000
      6      -6.2351      2.00000
      7      -6.0173      2.00000
      8      -5.9717      2.00000
      9      -5.7705      2.00000
     10      -5.7656      2.00000
     11       1.3661      2.00000
     12       1.4277      2.00000
     13       2.6523      0.00000
     14       2.6703      0.00000
     15       9.6593      0.00000
     16       9.9243      0.00000

 k-point    92 :       0.1818    0.1818    0.4545
  band No.  band energies     occupation 
      1      -6.8674      2.00000
      2      -6.8593      2.00000
      3      -6.7535      2.00000
      4      -6.7401      2.00000
      5      -6.5212      2.00000
      6      -6.4958      2.00000
      7      -6.2494      2.00000
      8      -6.2164      2.00000
      9      -5.9601      2.00000
     10      -5.9349      2.00000
     11      -2.2777      2.00000
     12      -1.8336      2.00000
     13       6.9723      0.00000
     14       8.1120      0.00000
     15       8.9436      0.00000
     16       9.2076      0.00000

 k-point    93 :       0.2727    0.1818    0.4545
  band No.  band energies     occupation 
      1      -6.9281      2.00000
      2      -6.9101      2.00000
      3      -6.8078      2.00000
      4      -6.7863      2.00000
      5      -6.4052      2.00000
      6      -6.3574      2.00000
      7      -6.2798      2.00000
      8      -6.2568      2.00000
      9      -5.8926      2.00000
     10      -5.8555      2.00000
     11      -0.7564      2.00000
     12      -0.3320      2.00000
     13       6.1618      0.00000
     14       6.5320      0.00000
     15       8.1031      0.00000
     16       8.4027      0.00000

 k-point    94 :       0.3636    0.1818    0.4545
  band No.  band energies     occupation 
      1      -6.9716      2.00000
      2      -6.9538      2.00000
      3      -6.8642      2.00000
      4      -6.8351      2.00000
      5      -6.4061      2.00000
      6      -6.3484      2.00000
      7      -6.1051      2.00000
      8      -6.0741      2.00000
      9      -5.9415      2.00000
     10      -5.9062      2.00000
     11       1.1413      1.98676
     12       1.5310      1.94999
     13       3.6042      0.00000
     14       3.9845      0.00000
     15       7.8895      0.00000
     16       8.2874      0.00000

 k-point    95 :       0.2727    0.2727    0.4545
  band No.  band energies     occupation 
      1      -6.8351      2.00000
      2      -6.8107      2.00000
      3      -6.7203      2.00000
      4      -6.6937      2.00000
      5      -6.5091      2.00000
      6      -6.4470      2.00000
      7      -6.3024      2.00000
      8      -6.2857      2.00000
      9      -5.9549      2.00000
     10      -5.9158      2.00000
     11       0.9874      1.93576
     12       1.4003      1.84560
     13       5.3141      0.00000
     14       5.6368      0.00000
     15       5.9340      0.00000
     16       6.2228      0.00000

 k-point    96 :       0.3636    0.2727    0.4545
  band No.  band energies     occupation 
      1      -6.7882      2.00000
      2      -6.7698      2.00000
      3      -6.6880      2.00000
      4      -6.6787      2.00000
      5      -6.5264      2.00000
      6      -6.4702      2.00000
      7      -6.2653      2.00000
      8      -6.2618      2.00000
      9      -6.0204      2.00000
     10      -6.0056      2.00000
     11       2.9380      1.10264
     12       3.0633      0.70480
     13       3.5435      0.00000
     14       3.6818      0.00000
     15       5.3906      0.00000
     16       5.8009      0.00000


--------------------------------------------------------------------------------------------------------


 soft charge-density along one line, spin component           1
         0         1         2         3         4         5         6         7         8         9
 total charge-density along one line
 
 pseudopotential strength for first ion, spin component:           1
-18.286  -0.000  -0.000   0.000  -0.000 -18.315  -0.000  -0.000
 -0.000 -18.295   0.000   0.000  -0.000  -0.000 -18.324   0.000
 -0.000   0.000 -18.300  -0.000   0.000  -0.000   0.000 -18.328
  0.000   0.000  -0.000 -18.295  -0.000   0.000   0.000  -0.000
 -0.000  -0.000   0.000  -0.000 -18.286  -0.000  -0.000   0.000
-18.315  -0.000  -0.000   0.000  -0.000 -18.323  -0.000  -0.000
 -0.000 -18.324   0.000   0.000  -0.000  -0.000 -18.332   0.000
 -0.000   0.000 -18.328  -0.000   0.000  -0.000   0.000 -18.337
  0.000   0.000  -0.000 -18.324  -0.000   0.000   0.000  -0.000
 -0.000  -0.000   0.000  -0.000 -18.315  -0.000  -0.000   0.000
 -0.000  -0.000  -0.001   0.000   0.000  -0.000  -0.000  -0.002
 -0.000  -0.000  -0.002   0.000   0.000  -0.000  -0.000  -0.002
 -0.000  -0.000  -0.000   0.000   0.001  -0.000  -0.000  -0.000
  0.000   0.000  -0.000  -0.000  -0.000   0.000   0.000  -0.000
  0.001   0.000   0.000  -0.000  -0.000   0.001   0.000   0.000
 -0.000  -0.000  -0.000   0.000   0.001  -0.000  -0.000  -0.000
  0.000   0.000  -0.000  -0.000  -0.000   0.000   0.000  -0.000
  0.001   0.000   0.000  -0.000  -0.000   0.001   0.000   0.000
 total augmentation occupancy for first ion, spin component:           1
  3.142   0.000   0.000   0.000  -0.000  -1.095   0.000   0.000  -0.000   0.000   0.000  -0.000   0.000  -0.000   0.059   0.000
  0.000   2.675  -0.000   0.000  -0.000  -0.000  -0.571  -0.000   0.000  -0.000   0.000  -0.000   0.000  -0.000  -0.000   0.000
 -0.000   0.000   3.286  -0.000  -0.000   0.000   0.000  -1.164   0.000   0.000   0.524  -0.087  -0.000  -0.000  -0.000   0.000
 -0.000   0.000   0.000   2.675  -0.000  -0.000  -0.000  -0.000  -0.571  -0.000  -0.000   0.000  -0.000   0.000   0.000   0.000
  0.000  -0.000  -0.000  -0.000   3.142   0.000  -0.000   0.000  -0.000  -1.095  -0.000   0.000   0.059   0.000   0.000  -0.003
 -1.095  -0.000   0.000   0.000   0.000   1.032  -0.000  -0.000   0.000   0.000   0.000  -0.000  -0.000   0.000  -0.055   0.000
  0.000  -0.571   0.000   0.000   0.000   0.000   0.460  -0.000  -0.000  -0.000   0.000  -0.000   0.000   0.000  -0.000  -0.000
  0.000  -0.000  -1.164   0.000   0.000  -0.000  -0.000   1.035  -0.000  -0.000  -0.531   0.117   0.000   0.000   0.000  -0.000
 -0.000   0.000   0.000  -0.571   0.000  -0.000  -0.000   0.000   0.460   0.000   0.000   0.000   0.000   0.000  -0.000  -0.000
 -0.000  -0.000   0.000   0.000  -1.095   0.000  -0.000  -0.000   0.000   1.032   0.000  -0.000  -0.055   0.000   0.000   0.005
  0.000   0.000   0.524   0.000  -0.000   0.000  -0.000  -0.531   0.000   0.000   2.697  -0.621  -0.000   0.000   0.000   0.000
 -0.000   0.000  -0.087   0.000   0.000   0.000   0.000   0.117   0.000  -0.000  -0.621   0.227   0.000  -0.000  -0.000   0.000
  0.000   0.000  -0.000  -0.000   0.059   0.000   0.000   0.000  -0.000  -0.055   0.000  -0.000   0.212  -0.000   0.000  -0.035
  0.000   0.000  -0.000  -0.000   0.000  -0.000   0.000   0.000   0.000   0.000   0.000  -0.000  -0.000   0.117   0.000  -0.000
  0.059  -0.000   0.000   0.000   0.000  -0.055  -0.000   0.000   0.000  -0.000  -0.000  -0.000   0.000   0.000   0.212  -0.000
  0.000   0.000   0.000   0.000  -0.003   0.000  -0.000  -0.000   0.000   0.005  -0.000  -0.000  -0.035  -0.000  -0.000   0.007
  0.000   0.000   0.000  -0.000   0.000  -0.000  -0.000   0.000  -0.000  -0.000  -0.000   0.000  -0.000  -0.019  -0.000   0.000
 -0.003  -0.000   0.000   0.000   0.000   0.005  -0.000  -0.000  -0.000   0.000  -0.000   0.000   0.000   0.000  -0.035   0.000


------------------------ aborting loop because EDIFF is reached ----------------------------------------


 


 total charge     
 
# of ion     s       p       d       tot
----------------------------------------
  1        0.530   0.280   9.487  10.297
  2        0.530   0.280   9.487  10.297
------------------------------------------------
tot        1.059   0.560  18.974  20.593
 
    CHARGE:  cpu time    0.03: real time    0.03
    FORLOC:  cpu time    0.00: real time    0.00
    FORNL :  cpu time    0.05: real time    0.05
    FORCOR:  cpu time    0.01: real time    0.01
    FORHAR:  cpu time    0.00: real time    0.00
    MIXING:  cpu time    0.00: real time    0.00
    OFIELD:  cpu time    0.00: real time    0.00

 VOLUME and BASIS-vectors are now :
 -----------------------------------------------------------------------------
  energy-cutoff  :      600.00
  volume of cell :       46.56
      direct lattice vectors                 reciprocal lattice vectors
     3.007846000  0.000000000  0.000000000     0.332463830  0.191948085  0.000000000
    -1.503923000  2.604871000  0.000000000     0.000000000  0.383896170  0.000000000
     0.000000000  0.000000000  5.941963000     0.000000000  0.000000000  0.168294552

  length of vectors
     3.007846000  3.007845960  5.941963000     0.383896165  0.383896170  0.168294552


 FORCES acting on ions
    electron-ion (+dipol)            ewald-force                    non-local-force                 convergence-correction
 -----------------------------------------------------------------------------------------------
   0.234E-03 -.135E-03 0.141E-05   0.275E-04 -.164E-04 -.398E-13   -.104E-16 0.173E-16 0.152E-17   -.234E-06 0.136E-06 -.138E-08
   -.574E-03 0.331E-03 0.141E-05   -.275E-04 0.164E-04 0.398E-13   -.104E-16 -.173E-16 -.152E-17   0.339E-06 -.196E-06 -.138E-08
 -----------------------------------------------------------------------------------------------
   -.340E-03 0.196E-03 0.282E-05   0.121E-13 0.416E-14 0.000E+00   -.208E-16 0.000E+00 0.000E+00   0.105E-06 -.606E-07 -.276E-08
 
 
 POSITION                                       TOTAL-FORCE (eV/Angst)
 -----------------------------------------------------------------------------------
     -0.00000      1.73658      1.48549        -0.000000      0.000000      0.000000
      1.50392      0.86829      4.45647         0.000000     -0.000000      0.000000
 -----------------------------------------------------------------------------------
    total drift:                               -0.000340      0.000196      0.000003


--------------------------------------------------------------------------------------------------------



  FREE ENERGIE OF THE ION-ELECTRON SYSTEM (eV)
  ---------------------------------------------------
  free  energy   TOTEN  =        -1.40726286 eV

  energy  without entropy=       -1.40726286  energy(sigma->0) =       -1.40726286
 


--------------------------------------------------------------------------------------------------------


    POTLOK:  cpu time    0.02: real time    0.02


--------------------------------------------------------------------------------------------------------


 writing wavefunctions
     LOOP+:  cpu time   10.77: real time   17.59
    4ORBIT:  cpu time    0.00: real time    0.00
 


 total charge     
 
# of ion     s       p       d       tot
----------------------------------------
  1        0.530   0.280   9.487  10.297
  2        0.530   0.280   9.487  10.297
------------------------------------------------
tot        1.059   0.560  18.974  20.593
 
 BZINTS: Fermi energy:  2.397514; 24.000000 electrons
         Band energy:-132.711445;  BLOECHL correction:  0.000000

 total amount of memory used by VASP on root node    35124. kBytes
========================================================================

   base      :      30000. kBytes
   nonl-proj :       2771. kBytes
   fftplans  :        400. kBytes
   grid      :        587. kBytes
   one-center:         15. kBytes
   wavefun   :       1351. kBytes
 
  
  
 General timing and accounting informations for this job:
 ========================================================
  
                  Total CPU time used (sec):       18.121
                            User time (sec):       15.941
                          System time (sec):        2.180
                         Elapsed time (sec):      191.632
  
                   Maximum memory used (kb):       65544.
                   Average memory used (kb):           0.
  
                          Minor page faults:        12649
                          Major page faults:            0
                 Voluntary context switches:       138545
