   2   2   1   0
  0.2828239E+02  0.3422518E-09  0.3422518E-09  0.5576016E-09  0.5000000E-15
  1.000000000000000E-004
  CAR 
 CdIn2S4                                 
     10.00000000     -5.00000000 1601      6.73553089      1.00000000
     -5.000  0.0000E+00  0.2000E+02
     -4.991  0.0000E+00  0.2000E+02
     -4.981  0.0000E+00  0.2000E+02
     -4.972  0.0000E+00  0.2000E+02
     -4.963  0.0000E+00  0.2000E+02
     -4.953  0.0000E+00  0.2000E+02
     -4.944  0.0000E+00  0.2000E+02
     -4.934  0.0000E+00  0.2000E+02
     -4.925  0.0000E+00  0.2000E+02
     -4.916  0.0000E+00  0.2000E+02
     -4.906  0.0000E+00  0.2000E+02
     -4.897  0.0000E+00  0.2000E+02
     -4.888  0.0000E+00  0.2000E+02
     -4.878  0.0000E+00  0.2000E+02
     -4.869  0.0000E+00  0.2000E+02
     -4.859  0.0000E+00  0.2000E+02
     -4.850  0.0000E+00  0.2000E+02
     -4.841  0.0000E+00  0.2000E+02
     -4.831  0.0000E+00  0.2000E+02
     -4.822  0.0000E+00  0.2000E+02
     -4.812  0.0000E+00  0.2000E+02
     -4.803  0.0000E+00  0.2000E+02
     -4.794  0.0000E+00  0.2000E+02
     -4.784  0.0000E+00  0.2000E+02
     -4.775  0.0000E+00  0.2000E+02
     -4.766  0.0000E+00  0.2000E+02
     -4.756  0.0000E+00  0.2000E+02
     -4.747  0.0000E+00  0.2000E+02
     -4.737  0.0000E+00  0.2000E+02
     -4.728  0.0000E+00  0.2000E+02
     -4.719  0.0000E+00  0.2000E+02
     -4.709  0.0000E+00  0.2000E+02
     -4.700  0.0000E+00  0.2000E+02
     -4.691  0.0000E+00  0.2000E+02
     -4.681  0.0000E+00  0.2000E+02
     -4.672  0.0000E+00  0.2000E+02
     -4.662  0.0000E+00  0.2000E+02
     -4.653  0.0000E+00  0.2000E+02
     -4.644  0.0000E+00  0.2000E+02
     -4.634  0.0000E+00  0.2000E+02
     -4.625  0.0000E+00  0.2000E+02
     -4.616  0.0000E+00  0.2000E+02
     -4.606  0.0000E+00  0.2000E+02
     -4.597  0.0000E+00  0.2000E+02
     -4.588  0.0000E+00  0.2000E+02
     -4.578  0.0000E+00  0.2000E+02
     -4.569  0.0000E+00  0.2000E+02
     -4.559  0.0000E+00  0.2000E+02
     -4.550  0.0000E+00  0.2000E+02
     -4.541  0.0000E+00  0.2000E+02
     -4.531  0.0000E+00  0.2000E+02
     -4.522  0.0000E+00  0.2000E+02
     -4.513  0.0000E+00  0.2000E+02
     -4.503  0.0000E+00  0.2000E+02
     -4.494  0.0000E+00  0.2000E+02
     -4.484  0.0000E+00  0.2000E+02
     -4.475  0.0000E+00  0.2000E+02
     -4.466  0.0000E+00  0.2000E+02
     -4.456  0.0000E+00  0.2000E+02
     -4.447  0.0000E+00  0.2000E+02
     -4.438  0.0000E+00  0.2000E+02
     -4.428  0.0000E+00  0.2000E+02
     -4.419  0.0000E+00  0.2000E+02
     -4.409  0.0000E+00  0.2000E+02
     -4.400  0.0000E+00  0.2000E+02
     -4.391  0.0000E+00  0.2000E+02
     -4.381  0.0000E+00  0.2000E+02
     -4.372  0.0000E+00  0.2000E+02
     -4.362  0.0000E+00  0.2000E+02
     -4.353  0.0000E+00  0.2000E+02
     -4.344  0.0000E+00  0.2000E+02
     -4.334  0.0000E+00  0.2000E+02
     -4.325  0.0000E+00  0.2000E+02
     -4.316  0.0000E+00  0.2000E+02
     -4.306  0.0000E+00  0.2000E+02
     -4.297  0.0000E+00  0.2000E+02
     -4.287  0.0000E+00  0.2000E+02
     -4.278  0.0000E+00  0.2000E+02
     -4.269  0.0000E+00  0.2000E+02
     -4.259  0.0000E+00  0.2000E+02
     -4.250  0.0000E+00  0.2000E+02
     -4.241  0.0000E+00  0.2000E+02
     -4.231  0.0000E+00  0.2000E+02
     -4.222  0.0000E+00  0.2000E+02
     -4.213  0.0000E+00  0.2000E+02
     -4.203  0.0000E+00  0.2000E+02
     -4.194  0.0000E+00  0.2000E+02
     -4.184  0.0000E+00  0.2000E+02
     -4.175  0.0000E+00  0.2000E+02
     -4.166  0.0000E+00  0.2000E+02
     -4.156  0.0000E+00  0.2000E+02
     -4.147  0.0000E+00  0.2000E+02
     -4.138  0.0000E+00  0.2000E+02
     -4.128  0.0000E+00  0.2000E+02
     -4.119  0.0000E+00  0.2000E+02
     -4.109  0.0000E+00  0.2000E+02
     -4.100  0.0000E+00  0.2000E+02
     -4.091  0.0000E+00  0.2000E+02
     -4.081  0.0000E+00  0.2000E+02
     -4.072  0.0000E+00  0.2000E+02
     -4.062  0.0000E+00  0.2000E+02
     -4.053  0.0000E+00  0.2000E+02
     -4.044  0.0000E+00  0.2000E+02
     -4.034  0.0000E+00  0.2000E+02
     -4.025  0.0000E+00  0.2000E+02
     -4.016  0.0000E+00  0.2000E+02
     -4.006  0.0000E+00  0.2000E+02
     -3.997  0.0000E+00  0.2000E+02
     -3.987  0.0000E+00  0.2000E+02
     -3.978  0.0000E+00  0.2000E+02
     -3.969  0.0000E+00  0.2000E+02
     -3.959  0.0000E+00  0.2000E+02
     -3.950  0.0000E+00  0.2000E+02
     -3.941  0.0000E+00  0.2000E+02
     -3.931  0.0000E+00  0.2000E+02
     -3.922  0.0000E+00  0.2000E+02
     -3.913  0.0000E+00  0.2000E+02
     -3.903  0.0000E+00  0.2000E+02
     -3.894  0.0000E+00  0.2000E+02
     -3.884  0.0000E+00  0.2000E+02
     -3.875  0.0000E+00  0.2000E+02
     -3.866  0.0000E+00  0.2000E+02
     -3.856  0.0000E+00  0.2000E+02
     -3.847  0.0000E+00  0.2000E+02
     -3.838  0.0000E+00  0.2000E+02
     -3.828  0.0000E+00  0.2000E+02
     -3.819  0.0000E+00  0.2000E+02
     -3.809  0.0000E+00  0.2000E+02
     -3.800  0.0000E+00  0.2000E+02
     -3.791  0.0000E+00  0.2000E+02
     -3.781  0.0000E+00  0.2000E+02
     -3.772  0.0000E+00  0.2000E+02
     -3.763  0.0000E+00  0.2000E+02
     -3.753  0.0000E+00  0.2000E+02
     -3.744  0.0000E+00  0.2000E+02
     -3.734  0.0000E+00  0.2000E+02
     -3.725  0.0000E+00  0.2000E+02
     -3.716  0.0000E+00  0.2000E+02
     -3.706  0.0000E+00  0.2000E+02
     -3.697  0.0000E+00  0.2000E+02
     -3.688  0.0000E+00  0.2000E+02
     -3.678  0.0000E+00  0.2000E+02
     -3.669  0.0000E+00  0.2000E+02
     -3.659  0.0000E+00  0.2000E+02
     -3.650  0.0000E+00  0.2000E+02
     -3.641  0.0000E+00  0.2000E+02
     -3.631  0.0000E+00  0.2000E+02
     -3.622  0.0000E+00  0.2000E+02
     -3.612  0.0000E+00  0.2000E+02
     -3.603  0.0000E+00  0.2000E+02
     -3.594  0.0000E+00  0.2000E+02
     -3.584  0.0000E+00  0.2000E+02
     -3.575  0.0000E+00  0.2000E+02
     -3.566  0.0000E+00  0.2000E+02
     -3.556  0.0000E+00  0.2000E+02
     -3.547  0.0000E+00  0.2000E+02
     -3.538  0.0000E+00  0.2000E+02
     -3.528  0.0000E+00  0.2000E+02
     -3.519  0.0000E+00  0.2000E+02
     -3.509  0.0000E+00  0.2000E+02
     -3.500  0.0000E+00  0.2000E+02
     -3.491  0.0000E+00  0.2000E+02
     -3.481  0.0000E+00  0.2000E+02
     -3.472  0.0000E+00  0.2000E+02
     -3.463  0.0000E+00  0.2000E+02
     -3.453  0.0000E+00  0.2000E+02
     -3.444  0.0000E+00  0.2000E+02
     -3.434  0.0000E+00  0.2000E+02
     -3.425  0.0000E+00  0.2000E+02
     -3.416  0.0000E+00  0.2000E+02
     -3.406  0.0000E+00  0.2000E+02
     -3.397  0.0000E+00  0.2000E+02
     -3.388  0.0000E+00  0.2000E+02
     -3.378  0.0000E+00  0.2000E+02
     -3.369  0.0000E+00  0.2000E+02
     -3.359  0.0000E+00  0.2000E+02
     -3.350  0.0000E+00  0.2000E+02
     -3.341  0.0000E+00  0.2000E+02
     -3.331  0.0000E+00  0.2000E+02
     -3.322  0.0000E+00  0.2000E+02
     -3.312  0.0000E+00  0.2000E+02
     -3.303  0.0000E+00  0.2000E+02
     -3.294  0.0000E+00  0.2000E+02
     -3.284  0.0000E+00  0.2000E+02
     -3.275  0.0000E+00  0.2000E+02
     -3.266  0.0000E+00  0.2000E+02
     -3.256  0.0000E+00  0.2000E+02
     -3.247  0.0000E+00  0.2000E+02
     -3.237  0.0000E+00  0.2000E+02
     -3.228  0.0000E+00  0.2000E+02
     -3.219  0.0000E+00  0.2000E+02
     -3.209  0.0000E+00  0.2000E+02
     -3.200  0.0000E+00  0.2000E+02
     -3.191  0.0000E+00  0.2000E+02
     -3.181  0.0000E+00  0.2000E+02
     -3.172  0.0000E+00  0.2000E+02
     -3.163  0.0000E+00  0.2000E+02
     -3.153  0.0000E+00  0.2000E+02
     -3.144  0.0000E+00  0.2000E+02
     -3.134  0.0000E+00  0.2000E+02
     -3.125  0.0000E+00  0.2000E+02
     -3.116  0.0000E+00  0.2000E+02
     -3.106  0.0000E+00  0.2000E+02
     -3.097  0.0000E+00  0.2000E+02
     -3.088  0.0000E+00  0.2000E+02
     -3.078  0.0000E+00  0.2000E+02
     -3.069  0.0000E+00  0.2000E+02
     -3.059  0.0000E+00  0.2000E+02
     -3.050  0.0000E+00  0.2000E+02
     -3.041  0.0000E+00  0.2000E+02
     -3.031  0.0000E+00  0.2000E+02
     -3.022  0.0000E+00  0.2000E+02
     -3.013  0.0000E+00  0.2000E+02
     -3.003  0.0000E+00  0.2000E+02
     -2.994  0.0000E+00  0.2000E+02
     -2.984  0.0000E+00  0.2000E+02
     -2.975  0.0000E+00  0.2000E+02
     -2.966  0.0000E+00  0.2000E+02
     -2.956  0.0000E+00  0.2000E+02
     -2.947  0.0000E+00  0.2000E+02
     -2.938  0.0000E+00  0.2000E+02
     -2.928  0.0000E+00  0.2000E+02
     -2.919  0.0000E+00  0.2000E+02
     -2.909  0.0000E+00  0.2000E+02
     -2.900  0.0000E+00  0.2000E+02
     -2.891  0.0000E+00  0.2000E+02
     -2.881  0.0000E+00  0.2000E+02
     -2.872  0.0000E+00  0.2000E+02
     -2.863  0.0000E+00  0.2000E+02
     -2.853  0.0000E+00  0.2000E+02
     -2.844  0.0000E+00  0.2000E+02
     -2.834  0.0000E+00  0.2000E+02
     -2.825  0.0000E+00  0.2000E+02
     -2.816  0.0000E+00  0.2000E+02
     -2.806  0.0000E+00  0.2000E+02
     -2.797  0.0000E+00  0.2000E+02
     -2.788  0.0000E+00  0.2000E+02
     -2.778  0.0000E+00  0.2000E+02
     -2.769  0.0000E+00  0.2000E+02
     -2.759  0.0000E+00  0.2000E+02
     -2.750  0.0000E+00  0.2000E+02
     -2.741  0.0000E+00  0.2000E+02
     -2.731  0.0000E+00  0.2000E+02
     -2.722  0.0000E+00  0.2000E+02
     -2.712  0.0000E+00  0.2000E+02
     -2.703  0.0000E+00  0.2000E+02
     -2.694  0.0000E+00  0.2000E+02
     -2.684  0.0000E+00  0.2000E+02
     -2.675  0.0000E+00  0.2000E+02
     -2.666  0.0000E+00  0.2000E+02
     -2.656  0.0000E+00  0.2000E+02
     -2.647  0.0000E+00  0.2000E+02
     -2.638  0.0000E+00  0.2000E+02
     -2.628  0.0000E+00  0.2000E+02
     -2.619  0.0000E+00  0.2000E+02
     -2.609  0.0000E+00  0.2000E+02
     -2.600  0.0000E+00  0.2000E+02
     -2.591  0.0000E+00  0.2000E+02
     -2.581  0.0000E+00  0.2000E+02
     -2.572  0.0000E+00  0.2000E+02
     -2.562  0.0000E+00  0.2000E+02
     -2.553  0.0000E+00  0.2000E+02
     -2.544  0.0000E+00  0.2000E+02
     -2.534  0.0000E+00  0.2000E+02
     -2.525  0.0000E+00  0.2000E+02
     -2.516  0.0000E+00  0.2000E+02
     -2.506  0.0000E+00  0.2000E+02
     -2.497  0.0000E+00  0.2000E+02
     -2.488  0.0000E+00  0.2000E+02
     -2.478  0.0000E+00  0.2000E+02
     -2.469  0.0000E+00  0.2000E+02
     -2.459  0.0000E+00  0.2000E+02
     -2.450  0.0000E+00  0.2000E+02
     -2.441  0.0000E+00  0.2000E+02
     -2.431  0.0000E+00  0.2000E+02
     -2.422  0.0000E+00  0.2000E+02
     -2.413  0.0000E+00  0.2000E+02
     -2.403  0.0000E+00  0.2000E+02
     -2.394  0.0000E+00  0.2000E+02
     -2.384  0.0000E+00  0.2000E+02
     -2.375  0.0000E+00  0.2000E+02
     -2.366  0.0000E+00  0.2000E+02
     -2.356  0.0000E+00  0.2000E+02
     -2.347  0.1816E-03  0.2000E+02
     -2.337  0.1768E-02  0.2000E+02
     -2.328  0.4987E-02  0.2000E+02
     -2.319  0.9838E-02  0.2000E+02
     -2.309  0.1632E-01  0.2000E+02
     -2.300  0.2397E-01  0.2000E+02
     -2.291  0.3215E-01  0.2000E+02
     -2.281  0.4088E-01  0.2000E+02
     -2.272  0.5015E-01  0.2000E+02
     -2.263  0.5996E-01  0.2000E+02
     -2.253  0.7031E-01  0.2000E+02
     -2.244  0.8120E-01  0.2000E+02
     -2.234  0.9263E-01  0.2000E+02
     -2.225  0.1046E+00  0.2001E+02
     -2.216  0.1171E+00  0.2001E+02
     -2.206  0.1302E+00  0.2001E+02
     -2.197  0.1388E+00  0.2001E+02
     -2.188  0.1384E+00  0.2001E+02
     -2.178  0.1371E+00  0.2001E+02
     -2.169  0.1347E+00  0.2001E+02
     -2.159  0.1311E+00  0.2001E+02
     -2.150  0.1338E+00  0.2001E+02
     -2.141  0.1380E+00  0.2002E+02
     -2.131  0.1420E+00  0.2002E+02
     -2.122  0.1458E+00  0.2002E+02
     -2.113  0.1495E+00  0.2002E+02
     -2.103  0.1530E+00  0.2002E+02
     -2.094  0.1563E+00  0.2002E+02
     -2.084  0.1595E+00  0.2002E+02
     -2.075  0.1624E+00  0.2003E+02
     -2.066  0.1652E+00  0.2003E+02
     -2.056  0.1679E+00  0.2003E+02
     -2.047  0.1703E+00  0.2003E+02
     -2.038  0.1726E+00  0.2003E+02
     -2.028  0.1749E+00  0.2003E+02
     -2.019  0.1787E+00  0.2004E+02
     -2.009  0.1825E+00  0.2004E+02
     -2.000  0.1864E+00  0.2004E+02
     -1.991  0.1903E+00  0.2004E+02
     -1.981  0.1942E+00  0.2004E+02
     -1.972  0.1981E+00  0.2004E+02
     -1.962  0.2021E+00  0.2005E+02
     -1.953  0.2060E+00  0.2005E+02
     -1.944  0.2099E+00  0.2005E+02
     -1.934  0.2136E+00  0.2005E+02
     -1.925  0.2174E+00  0.2005E+02
     -1.916  0.2210E+00  0.2006E+02
     -1.906  0.2246E+00  0.2006E+02
     -1.897  0.2281E+00  0.2006E+02
     -1.888  0.2314E+00  0.2006E+02
     -1.878  0.2343E+00  0.2006E+02
     -1.869  0.2369E+00  0.2007E+02
     -1.859  0.2391E+00  0.2007E+02
     -1.850  0.2409E+00  0.2007E+02
     -1.841  0.2426E+00  0.2007E+02
     -1.831  0.2440E+00  0.2008E+02
     -1.822  0.2453E+00  0.2008E+02
     -1.812  0.2466E+00  0.2008E+02
     -1.803  0.2484E+00  0.2008E+02
     -1.794  0.2501E+00  0.2009E+02
     -1.784  0.2517E+00  0.2009E+02
     -1.775  0.2532E+00  0.2009E+02
     -1.766  0.2546E+00  0.2009E+02
     -1.756  0.2560E+00  0.2009E+02
     -1.747  0.2573E+00  0.2010E+02
     -1.738  0.2585E+00  0.2010E+02
     -1.728  0.2599E+00  0.2010E+02
     -1.719  0.2614E+00  0.2010E+02
     -1.709  0.2631E+00  0.2011E+02
     -1.700  0.2650E+00  0.2011E+02
     -1.691  0.2669E+00  0.2011E+02
     -1.681  0.2689E+00  0.2011E+02
     -1.672  0.2709E+00  0.2012E+02
     -1.663  0.2730E+00  0.2012E+02
     -1.653  0.2750E+00  0.2012E+02
     -1.644  0.2770E+00  0.2012E+02
     -1.634  0.2790E+00  0.2013E+02
     -1.625  0.2810E+00  0.2013E+02
     -1.616  0.2830E+00  0.2013E+02
     -1.606  0.2849E+00  0.2014E+02
     -1.597  0.2868E+00  0.2014E+02
     -1.587  0.2887E+00  0.2014E+02
     -1.578  0.2906E+00  0.2014E+02
     -1.569  0.2925E+00  0.2015E+02
     -1.559  0.2943E+00  0.2015E+02
     -1.550  0.2961E+00  0.2015E+02
     -1.541  0.2978E+00  0.2015E+02
     -1.531  0.2994E+00  0.2016E+02
     -1.522  0.3011E+00  0.2016E+02
     -1.513  0.3026E+00  0.2016E+02
     -1.503  0.3045E+00  0.2017E+02
     -1.494  0.3065E+00  0.2017E+02
     -1.484  0.3084E+00  0.2017E+02
     -1.475  0.3104E+00  0.2017E+02
     -1.466  0.3124E+00  0.2018E+02
     -1.456  0.3145E+00  0.2018E+02
     -1.447  0.3165E+00  0.2018E+02
     -1.438  0.3186E+00  0.2019E+02
     -1.428  0.3206E+00  0.2019E+02
     -1.419  0.3227E+00  0.2019E+02
     -1.409  0.3248E+00  0.2020E+02
     -1.400  0.3269E+00  0.2020E+02
     -1.391  0.3290E+00  0.2020E+02
     -1.381  0.3312E+00  0.2020E+02
     -1.372  0.3333E+00  0.2021E+02
     -1.363  0.3355E+00  0.2021E+02
     -1.353  0.3377E+00  0.2021E+02
     -1.344  0.3399E+00  0.2022E+02
     -1.334  0.3421E+00  0.2022E+02
     -1.325  0.3443E+00  0.2022E+02
     -1.316  0.3465E+00  0.2023E+02
     -1.306  0.3487E+00  0.2023E+02
     -1.297  0.3509E+00  0.2023E+02
     -1.288  0.3531E+00  0.2024E+02
     -1.278  0.3543E+00  0.2024E+02
     -1.269  0.3568E+00  0.2024E+02
     -1.259  0.3611E+00  0.2025E+02
     -1.250  0.3651E+00  0.2025E+02
     -1.241  0.3690E+00  0.2025E+02
     -1.231  0.3734E+00  0.2026E+02
     -1.222  0.3777E+00  0.2026E+02
     -1.213  0.3817E+00  0.2026E+02
     -1.203  0.3856E+00  0.2027E+02
     -1.194  0.3893E+00  0.2027E+02
     -1.184  0.3928E+00  0.2027E+02
     -1.175  0.3961E+00  0.2028E+02
     -1.166  0.3993E+00  0.2028E+02
     -1.156  0.4022E+00  0.2029E+02
     -1.147  0.4050E+00  0.2029E+02
     -1.138  0.4076E+00  0.2029E+02
     -1.128  0.4101E+00  0.2030E+02
     -1.119  0.3824E+00  0.2030E+02
     -1.109  0.3827E+00  0.2030E+02
     -1.100  0.3832E+00  0.2031E+02
     -1.091  0.3836E+00  0.2031E+02
     -1.081  0.3840E+00  0.2032E+02
     -1.072  0.3844E+00  0.2032E+02
     -1.062  0.3847E+00  0.2032E+02
     -1.053  0.3851E+00  0.2033E+02
     -1.044  0.3855E+00  0.2033E+02
     -1.034  0.3858E+00  0.2033E+02
     -1.025  0.3861E+00  0.2034E+02
     -1.016  0.3864E+00  0.2034E+02
     -1.006  0.3866E+00  0.2034E+02
     -0.997  0.3869E+00  0.2035E+02
     -0.987  0.3871E+00  0.2035E+02
     -0.978  0.3873E+00  0.2036E+02
     -0.969  0.3875E+00  0.2036E+02
     -0.959  0.3877E+00  0.2036E+02
     -0.950  0.3879E+00  0.2037E+02
     -0.941  0.3882E+00  0.2037E+02
     -0.931  0.3884E+00  0.2037E+02
     -0.922  0.3887E+00  0.2038E+02
     -0.913  0.3889E+00  0.2038E+02
     -0.903  0.3891E+00  0.2038E+02
     -0.894  0.3894E+00  0.2039E+02
     -0.884  0.3897E+00  0.2039E+02
     -0.875  0.3899E+00  0.2040E+02
     -0.866  0.3902E+00  0.2040E+02
     -0.856  0.3905E+00  0.2040E+02
     -0.847  0.3907E+00  0.2041E+02
     -0.838  0.3910E+00  0.2041E+02
     -0.828  0.3912E+00  0.2041E+02
     -0.819  0.3915E+00  0.2042E+02
     -0.809  0.3914E+00  0.2042E+02
     -0.800  0.3910E+00  0.2042E+02
     -0.791  0.3918E+00  0.2043E+02
     -0.781  0.3951E+00  0.2043E+02
     -0.772  0.3986E+00  0.2044E+02
     -0.763  0.4023E+00  0.2044E+02
     -0.753  0.4061E+00  0.2044E+02
     -0.744  0.4100E+00  0.2045E+02
     -0.734  0.4140E+00  0.2045E+02
     -0.725  0.4182E+00  0.2045E+02
     -0.716  0.4226E+00  0.2046E+02
     -0.706  0.4271E+00  0.2046E+02
     -0.697  0.4317E+00  0.2047E+02
     -0.688  0.4365E+00  0.2047E+02
     -0.678  0.4414E+00  0.2047E+02
     -0.669  0.4464E+00  0.2048E+02
     -0.659  0.4517E+00  0.2048E+02
     -0.650  0.4575E+00  0.2049E+02
     -0.641  0.4337E+00  0.2049E+02
     -0.631  0.4354E+00  0.2050E+02
     -0.622  0.4371E+00  0.2050E+02
     -0.612  0.4388E+00  0.2050E+02
     -0.603  0.4405E+00  0.2051E+02
     -0.594  0.4423E+00  0.2051E+02
     -0.584  0.4440E+00  0.2052E+02
     -0.575  0.4458E+00  0.2052E+02
     -0.566  0.4476E+00  0.2052E+02
     -0.556  0.4494E+00  0.2053E+02
     -0.547  0.4512E+00  0.2053E+02
     -0.538  0.4530E+00  0.2054E+02
     -0.528  0.4548E+00  0.2054E+02
     -0.519  0.4567E+00  0.2055E+02
     -0.509  0.4585E+00  0.2055E+02
     -0.500  0.4602E+00  0.2055E+02
     -0.491  0.4619E+00  0.2056E+02
     -0.481  0.4635E+00  0.2056E+02
     -0.472  0.4650E+00  0.2057E+02
     -0.463  0.4665E+00  0.2057E+02
     -0.453  0.4680E+00  0.2058E+02
     -0.444  0.4695E+00  0.2058E+02
     -0.434  0.4709E+00  0.2059E+02
     -0.425  0.4723E+00  0.2059E+02
     -0.416  0.4737E+00  0.2059E+02
     -0.406  0.4751E+00  0.2060E+02
     -0.397  0.4765E+00  0.2060E+02
     -0.388  0.4779E+00  0.2061E+02
     -0.378  0.4792E+00  0.2061E+02
     -0.369  0.4805E+00  0.2062E+02
     -0.359  0.4818E+00  0.2062E+02
     -0.350  0.4831E+00  0.2063E+02
     -0.341  0.4845E+00  0.2063E+02
     -0.331  0.4857E+00  0.2063E+02
     -0.322  0.4865E+00  0.2064E+02
     -0.312  0.4873E+00  0.2064E+02
     -0.303  0.4881E+00  0.2065E+02
     -0.294  0.4889E+00  0.2065E+02
     -0.284  0.4897E+00  0.2066E+02
     -0.275  0.4905E+00  0.2066E+02
     -0.266  0.4912E+00  0.2067E+02
     -0.256  0.4920E+00  0.2067E+02
     -0.247  0.4928E+00  0.2068E+02
     -0.237  0.4935E+00  0.2068E+02
     -0.228  0.4942E+00  0.2069E+02
     -0.219  0.4950E+00  0.2069E+02
     -0.209  0.4956E+00  0.2069E+02
     -0.200  0.4934E+00  0.2070E+02
     -0.191  0.4940E+00  0.2070E+02
     -0.181  0.4947E+00  0.2071E+02
     -0.172  0.4958E+00  0.2071E+02
     -0.163  0.4969E+00  0.2072E+02
     -0.153  0.4980E+00  0.2072E+02
     -0.144  0.4990E+00  0.2073E+02
     -0.134  0.5001E+00  0.2073E+02
     -0.125  0.5011E+00  0.2074E+02
     -0.116  0.5022E+00  0.2074E+02
     -0.106  0.5032E+00  0.2075E+02
     -0.097  0.5042E+00  0.2075E+02
     -0.088  0.5052E+00  0.2076E+02
     -0.078  0.5062E+00  0.2076E+02
     -0.069  0.5073E+00  0.2076E+02
     -0.059  0.5084E+00  0.2077E+02
     -0.050  0.5096E+00  0.2077E+02
     -0.041  0.5107E+00  0.2078E+02
     -0.031  0.5119E+00  0.2078E+02
     -0.022  0.5130E+00  0.2079E+02
     -0.013  0.5142E+00  0.2079E+02
     -0.003  0.5154E+00  0.2080E+02
      0.006  0.5166E+00  0.2080E+02
      0.016  0.5178E+00  0.2081E+02
      0.025  0.5190E+00  0.2081E+02
      0.034  0.5202E+00  0.2082E+02
      0.044  0.5214E+00  0.2082E+02
      0.053  0.5226E+00  0.2083E+02
      0.062  0.5238E+00  0.2083E+02
      0.072  0.5250E+00  0.2084E+02
      0.081  0.5262E+00  0.2084E+02
      0.091  0.5275E+00  0.2085E+02
      0.100  0.5287E+00  0.2085E+02
      0.109  0.5299E+00  0.2086E+02
      0.119  0.5313E+00  0.2086E+02
      0.128  0.5326E+00  0.2087E+02
      0.138  0.5340E+00  0.2087E+02
      0.147  0.5353E+00  0.2088E+02
      0.156  0.5367E+00  0.2088E+02
      0.166  0.5380E+00  0.2089E+02
      0.175  0.5394E+00  0.2089E+02
      0.184  0.5408E+00  0.2090E+02
      0.194  0.5421E+00  0.2090E+02
      0.203  0.5435E+00  0.2091E+02
      0.212  0.5449E+00  0.2091E+02
      0.222  0.5463E+00  0.2092E+02
      0.231  0.5477E+00  0.2092E+02
      0.241  0.5491E+00  0.2093E+02
      0.250  0.5505E+00  0.2093E+02
      0.259  0.5520E+00  0.2094E+02
      0.269  0.5534E+00  0.2094E+02
      0.278  0.5519E+00  0.2095E+02
      0.287  0.5532E+00  0.2095E+02
      0.297  0.5544E+00  0.2096E+02
      0.306  0.5557E+00  0.2096E+02
      0.316  0.5569E+00  0.2097E+02
      0.325  0.5581E+00  0.2097E+02
      0.334  0.5594E+00  0.2098E+02
      0.344  0.5606E+00  0.2099E+02
      0.353  0.5619E+00  0.2099E+02
      0.362  0.5631E+00  0.2100E+02
      0.372  0.5644E+00  0.2100E+02
      0.381  0.5656E+00  0.2101E+02
      0.391  0.5669E+00  0.2101E+02
      0.400  0.5681E+00  0.2102E+02
      0.409  0.5694E+00  0.2102E+02
      0.419  0.5706E+00  0.2103E+02
      0.428  0.5719E+00  0.2103E+02
      0.438  0.5731E+00  0.2104E+02
      0.447  0.5744E+00  0.2104E+02
      0.456  0.5756E+00  0.2105E+02
      0.466  0.5768E+00  0.2105E+02
      0.475  0.5780E+00  0.2106E+02
      0.484  0.5791E+00  0.2107E+02
      0.494  0.5803E+00  0.2107E+02
      0.503  0.5815E+00  0.2108E+02
      0.513  0.5826E+00  0.2108E+02
      0.522  0.5837E+00  0.2109E+02
      0.531  0.5849E+00  0.2109E+02
      0.541  0.5860E+00  0.2110E+02
      0.550  0.5871E+00  0.2110E+02
      0.559  0.5878E+00  0.2111E+02
      0.569  0.5885E+00  0.2111E+02
      0.578  0.5890E+00  0.2112E+02
      0.587  0.5896E+00  0.2113E+02
      0.597  0.5903E+00  0.2113E+02
      0.606  0.5911E+00  0.2114E+02
      0.616  0.5920E+00  0.2114E+02
      0.625  0.5929E+00  0.2115E+02
      0.634  0.5937E+00  0.2115E+02
      0.644  0.5946E+00  0.2116E+02
      0.653  0.5955E+00  0.2116E+02
      0.662  0.5964E+00  0.2117E+02
      0.672  0.5973E+00  0.2118E+02
      0.681  0.5982E+00  0.2118E+02
      0.691  0.5991E+00  0.2119E+02
      0.700  0.6000E+00  0.2119E+02
      0.709  0.6009E+00  0.2120E+02
      0.719  0.6018E+00  0.2120E+02
      0.728  0.6029E+00  0.2121E+02
      0.737  0.6040E+00  0.2122E+02
      0.747  0.6051E+00  0.2122E+02
      0.756  0.6062E+00  0.2123E+02
      0.766  0.6073E+00  0.2123E+02
      0.775  0.6084E+00  0.2124E+02
      0.784  0.6095E+00  0.2124E+02
      0.794  0.6105E+00  0.2125E+02
      0.803  0.6116E+00  0.2125E+02
      0.812  0.6127E+00  0.2126E+02
      0.822  0.6138E+00  0.2127E+02
      0.831  0.6149E+00  0.2127E+02
      0.841  0.6160E+00  0.2128E+02
      0.850  0.6171E+00  0.2128E+02
      0.859  0.6183E+00  0.2129E+02
      0.869  0.6194E+00  0.2130E+02
      0.878  0.6206E+00  0.2130E+02
      0.888  0.6219E+00  0.2131E+02
      0.897  0.6232E+00  0.2131E+02
      0.906  0.6245E+00  0.2132E+02
      0.916  0.6258E+00  0.2132E+02
      0.925  0.6271E+00  0.2133E+02
      0.934  0.6285E+00  0.2134E+02
      0.944  0.6299E+00  0.2134E+02
      0.953  0.6313E+00  0.2135E+02
      0.962  0.6327E+00  0.2135E+02
      0.972  0.6342E+00  0.2136E+02
      0.981  0.6356E+00  0.2137E+02
      0.991  0.6371E+00  0.2137E+02
      1.000  0.6386E+00  0.2138E+02
      1.009  0.6401E+00  0.2138E+02
      1.019  0.6416E+00  0.2139E+02
      1.028  0.6432E+00  0.2140E+02
      1.037  0.6447E+00  0.2140E+02
      1.047  0.6462E+00  0.2141E+02
      1.056  0.6476E+00  0.2141E+02
      1.066  0.6490E+00  0.2142E+02
      1.075  0.6504E+00  0.2143E+02
      1.084  0.6518E+00  0.2143E+02
      1.094  0.6532E+00  0.2144E+02
      1.103  0.6546E+00  0.2144E+02
      1.112  0.6560E+00  0.2145E+02
      1.122  0.6574E+00  0.2146E+02
      1.131  0.6588E+00  0.2146E+02
      1.141  0.6602E+00  0.2147E+02
      1.150  0.6616E+00  0.2148E+02
      1.159  0.6630E+00  0.2148E+02
      1.169  0.6645E+00  0.2149E+02
      1.178  0.6659E+00  0.2149E+02
      1.188  0.6673E+00  0.2150E+02
      1.197  0.6688E+00  0.2151E+02
      1.206  0.6704E+00  0.2151E+02
      1.216  0.6720E+00  0.2152E+02
      1.225  0.6736E+00  0.2153E+02
      1.234  0.6751E+00  0.2153E+02
      1.244  0.6767E+00  0.2154E+02
      1.253  0.6783E+00  0.2154E+02
      1.263  0.6799E+00  0.2155E+02
      1.272  0.6815E+00  0.2156E+02
      1.281  0.6831E+00  0.2156E+02
      1.291  0.6847E+00  0.2157E+02
      1.300  0.6863E+00  0.2158E+02
      1.309  0.6879E+00  0.2158E+02
      1.319  0.6896E+00  0.2159E+02
      1.328  0.6912E+00  0.2160E+02
      1.337  0.6929E+00  0.2160E+02
      1.347  0.6946E+00  0.2161E+02
      1.356  0.6962E+00  0.2162E+02
      1.366  0.6979E+00  0.2162E+02
      1.375  0.6996E+00  0.2163E+02
      1.384  0.7012E+00  0.2163E+02
      1.394  0.7029E+00  0.2164E+02
      1.403  0.7046E+00  0.2165E+02
      1.412  0.7063E+00  0.2165E+02
      1.422  0.7080E+00  0.2166E+02
      1.431  0.7108E+00  0.2167E+02
      1.441  0.7191E+00  0.2167E+02
      1.450  0.7272E+00  0.2168E+02
      1.459  0.7350E+00  0.2169E+02
      1.469  0.7426E+00  0.2170E+02
      1.478  0.7472E+00  0.2170E+02
      1.487  0.7500E+00  0.2171E+02
      1.497  0.7529E+00  0.2172E+02
      1.506  0.7556E+00  0.2172E+02
      1.516  0.7583E+00  0.2173E+02
      1.525  0.7609E+00  0.2174E+02
      1.534  0.7635E+00  0.2174E+02
      1.544  0.7659E+00  0.2175E+02
      1.553  0.7683E+00  0.2176E+02
      1.562  0.7706E+00  0.2177E+02
      1.572  0.7729E+00  0.2177E+02
      1.581  0.7751E+00  0.2178E+02
      1.591  0.7772E+00  0.2179E+02
      1.600  0.7791E+00  0.2180E+02
      1.609  0.7802E+00  0.2180E+02
      1.619  0.7813E+00  0.2181E+02
      1.628  0.7815E+00  0.2182E+02
      1.638  0.7825E+00  0.2182E+02
      1.647  0.7835E+00  0.2183E+02
      1.656  0.7844E+00  0.2184E+02
      1.666  0.7853E+00  0.2185E+02
      1.675  0.7861E+00  0.2185E+02
      1.684  0.7869E+00  0.2186E+02
      1.694  0.7877E+00  0.2187E+02
      1.703  0.7884E+00  0.2188E+02
      1.712  0.7891E+00  0.2188E+02
      1.722  0.7898E+00  0.2189E+02
      1.731  0.7904E+00  0.2190E+02
      1.741  0.7910E+00  0.2191E+02
      1.750  0.7916E+00  0.2191E+02
      1.759  0.7922E+00  0.2192E+02
      1.769  0.7929E+00  0.2193E+02
      1.778  0.7936E+00  0.2194E+02
      1.787  0.7944E+00  0.2194E+02
      1.797  0.7951E+00  0.2195E+02
      1.806  0.7959E+00  0.2196E+02
      1.816  0.7964E+00  0.2197E+02
      1.825  0.7967E+00  0.2197E+02
      1.834  0.7971E+00  0.2198E+02
      1.844  0.7974E+00  0.2199E+02
      1.853  0.7978E+00  0.2200E+02
      1.862  0.7981E+00  0.2200E+02
      1.872  0.8228E+00  0.2201E+02
      1.881  0.8496E+00  0.2202E+02
      1.891  0.8743E+00  0.2203E+02
      1.900  0.8970E+00  0.2203E+02
      1.909  0.9109E+00  0.2204E+02
      1.919  0.9111E+00  0.2205E+02
      1.928  0.9107E+00  0.2206E+02
      1.938  0.9096E+00  0.2207E+02
      1.947  0.9079E+00  0.2208E+02
      1.956  0.9055E+00  0.2209E+02
      1.966  0.9024E+00  0.2209E+02
      1.975  0.8986E+00  0.2210E+02
      1.984  0.8942E+00  0.2211E+02
      1.994  0.8891E+00  0.2212E+02
      2.003  0.8833E+00  0.2213E+02
      2.013  0.8769E+00  0.2214E+02
      2.022  0.8698E+00  0.2214E+02
      2.031  0.8630E+00  0.2215E+02
      2.041  0.8548E+00  0.2216E+02
      2.050  0.8477E+00  0.2217E+02
      2.059  0.8422E+00  0.2218E+02
      2.069  0.8377E+00  0.2218E+02
      2.078  0.8335E+00  0.2219E+02
      2.087  0.8297E+00  0.2220E+02
      2.097  0.8256E+00  0.2221E+02
      2.106  0.8223E+00  0.2222E+02
      2.116  0.8192E+00  0.2222E+02
      2.125  0.8164E+00  0.2223E+02
      2.134  0.8140E+00  0.2224E+02
      2.144  0.8118E+00  0.2225E+02
      2.153  0.8099E+00  0.2225E+02
      2.162  0.8084E+00  0.2226E+02
      2.172  0.8071E+00  0.2227E+02
      2.181  0.8062E+00  0.2228E+02
      2.191  0.8056E+00  0.2228E+02
      2.200  0.8050E+00  0.2229E+02
      2.209  0.8045E+00  0.2230E+02
      2.219  0.8040E+00  0.2231E+02
      2.228  0.8034E+00  0.2231E+02
      2.237  0.8029E+00  0.2232E+02
      2.247  0.8017E+00  0.2233E+02
      2.256  0.7993E+00  0.2234E+02
      2.266  0.7971E+00  0.2234E+02
      2.275  0.7951E+00  0.2235E+02
      2.284  0.7932E+00  0.2236E+02
      2.294  0.7915E+00  0.2237E+02
      2.303  0.7898E+00  0.2237E+02
      2.312  0.7884E+00  0.2238E+02
      2.322  0.7870E+00  0.2239E+02
      2.331  0.7859E+00  0.2240E+02
      2.341  0.7848E+00  0.2240E+02
      2.350  0.7839E+00  0.2241E+02
      2.359  0.7831E+00  0.2242E+02
      2.369  0.7825E+00  0.2243E+02
      2.378  0.7820E+00  0.2243E+02
      2.387  0.7817E+00  0.2244E+02
      2.397  0.7816E+00  0.2245E+02
      2.406  0.7814E+00  0.2245E+02
      2.416  0.7813E+00  0.2246E+02
      2.425  0.7811E+00  0.2247E+02
      2.434  0.7807E+00  0.2248E+02
      2.444  0.7801E+00  0.2248E+02
      2.453  0.7793E+00  0.2249E+02
      2.462  0.7784E+00  0.2250E+02
      2.472  0.7772E+00  0.2251E+02
      2.481  0.7921E+00  0.2251E+02
      2.491  0.7891E+00  0.2252E+02
      2.500  0.7860E+00  0.2253E+02
      2.509  0.7827E+00  0.2254E+02
      2.519  0.7793E+00  0.2254E+02
      2.528  0.7756E+00  0.2255E+02
      2.537  0.7715E+00  0.2256E+02
      2.547  0.7666E+00  0.2256E+02
      2.556  0.7630E+00  0.2257E+02
      2.566  0.7595E+00  0.2258E+02
      2.575  0.7560E+00  0.2259E+02
      2.584  0.7527E+00  0.2259E+02
      2.594  0.7494E+00  0.2260E+02
      2.603  0.7462E+00  0.2261E+02
      2.612  0.7432E+00  0.2261E+02
      2.622  0.7402E+00  0.2262E+02
      2.631  0.7373E+00  0.2263E+02
      2.641  0.7345E+00  0.2263E+02
      2.650  0.7318E+00  0.2264E+02
      2.659  0.7292E+00  0.2265E+02
      2.669  0.7268E+00  0.2266E+02
      2.678  0.7243E+00  0.2266E+02
      2.688  0.7219E+00  0.2267E+02
      2.697  0.7195E+00  0.2268E+02
      2.706  0.7172E+00  0.2268E+02
      2.716  0.7148E+00  0.2269E+02
      2.725  0.7125E+00  0.2270E+02
      2.734  0.7101E+00  0.2270E+02