 vasp.5.3.5 31Mar14 (build Jan 22 2015 17:36:29) complex                        
  
 executed on             LinuxIFC date 2016.09.19  11:22:58
 running on   32 total cores
 distrk:  each k-point on   32 cores,    1 groups
 distr:  one band on NCORES_PER_BAND=   8 cores,    4 groups


--------------------------------------------------------------------------------------------------------


 INCAR:
 POTCAR:    PAW_PBE In_d 06Sep2000                
 POTCAR:    PAW_PBE In_d 06Sep2000                
   VRHFIN =In: s2p1                                                             
   LEXCH  = PE                                                                  
   EATOM  =  1576.8302 eV,  115.8937 Ry                                         
                                                                                
   TITEL  = PAW_PBE In_d 06Sep2000                                              
   LULTRA =        F    use ultrasoft PP ?                                      
   IUNSCR =        1    unscreen: 0-lin 1-nonlin 2-no                           
   RPACOR =    2.200    partial core radius                                     
   POMASS =  114.820; ZVAL   =   13.000    mass and valenz                      
   RCORE  =    2.500    outmost cutoff radius                                   
   RWIGS  =    3.170; RWIGS  =    1.677    wigner-seitz radius (au A)           
   ENMAX  =  239.211; ENMIN  =  179.409 eV                                      
   ICORE  =        3    local potential                                         
   LCOR   =        T    correct aug charges                                     
   LPAW   =        T    paw PP                                                  
   EAUG   =  449.704                                                            
   DEXC   =    0.000                                                            
   RMAX   =    2.552    core radius for proj-oper                               
   RAUG   =    1.300    factor for augmentation sphere                          
   RDEP   =    2.630    radius for radial grids                                 
   RDEPT  =    2.033    core radius for aug-charge                              
                                                                                
   Atomic configuration                                                         
   12 entries                                                                   
     n  l   j            E        occ.                                          
     1  0  0.50    -27747.9169   2.0000                                         
     2  0  0.50     -4154.4438   2.0000                                         
     2  1  1.50     -3728.4305   6.0000                                         
     3  0  0.50      -788.3680   2.0000                                         
     3  1  1.50      -648.9215   6.0000                                         
     3  2  2.50      -432.5893  10.0000                                         
     4  0  0.50      -119.6363   2.0000                                         
     4  1  1.50       -78.1086   6.0000                                         
     4  2  2.50       -18.6227  10.0000                                         
     5  0  0.50        -8.2107   2.0000                                         
     5  1  0.50        -2.5185   1.0000                                         
     4  3  2.50        -2.7212   0.0000                                         
   Description                                                                  
     l       E           TYP  RCUT    TYP  RCUT                                 
     2    -18.6226981     23  2.500                                             
     2     -1.3605826     23  2.500                                             
     0     -8.2107305     23  2.500                                             
     0     -6.1485975     23  2.500                                             
     1     -2.5184867     23  2.500                                             
     1      3.2427302     23  2.500                                             
     3     -1.3605826      7  2.500                                             
  local pseudopotential read in
  partial core-charges read in
  partial kinetic energy density read in
  atomic valenz-charges read in
  non local Contribution for L=           2  read in
    real space projection operators read in
  non local Contribution for L=           2  read in
    real space projection operators read in
  non local Contribution for L=           0  read in
    real space projection operators read in
  non local Contribution for L=           0  read in
    real space projection operators read in
  non local Contribution for L=           1  read in
    real space projection operators read in
  non local Contribution for L=           1  read in
    real space projection operators read in
    PAW grid and wavefunctions read in
 
   number of l-projection  operators is LMAX  =           6
   number of lm-projection operators is LMMAX =          18
 
  PAW_PBE In_d 06Sep2000                :
 energy of atom  1       EATOM=-1576.8302
 kinetic energy error for atom=    0.0011 (will be added to EATOM!!)
 
 
 POSCAR: In2                                     
  positions in direct lattice
  velocities in cartesian coordinates
 exchange correlation table for  LEXCH =        8
   RHO(1)=    0.500       N(1)  =     2000
   RHO(2)=  100.500       N(2)  =     4000
 


--------------------------------------------------------------------------------------------------------


 ion  position               nearest neighbor table
   1  0.667  0.333  0.750-   2 3.42   2 3.42   2 3.42   2 3.42   2 3.42   2 3.42
   2  0.333  0.667  0.250-   1 3.42   1 3.42   1 3.42   1 3.42   1 3.42   1 3.42
 
  LATTYP: Found a hexagonal cell.
 ALAT       =     3.4225175385
 C/A-ratio  =     1.6292147337
  
  Lattice vectors:
  
 A1 = (   3.4225180000,   0.0000000000,   0.0000000000)
 A2 = (  -1.7112590000,   2.9639870000,   0.0000000000)
 A3 = (   0.0000000000,   0.0000000000,   5.5760160000)


Analysis of symmetry for initial positions (statically):
=====================================================================
 Subroutine PRICEL returns:
 Original cell was already a primitive cell.
 

 Routine SETGRP: Setting up the symmetry group for a 
 hexagonal supercell.


 Subroutine GETGRP returns: Found 24 space group operations
 (whereof 12 operations were pure point group operations)
 out of a pool of 24 trial point group operations.


The static configuration has the point symmetry D_3d.
 The point group associated with its full space group is D_6h.


Analysis of symmetry for dynamics (positions and initial velocities):
=====================================================================
 Subroutine PRICEL returns:
 Original cell was already a primitive cell.
 

 Routine SETGRP: Setting up the symmetry group for a 
 hexagonal supercell.


 Subroutine GETGRP returns: Found 24 space group operations
 (whereof 12 operations were pure point group operations)
 out of a pool of 24 trial point group operations.


The dynamic configuration has the point symmetry D_3d.
 The point group associated with its full space group is D_6h.
 
 
 KPOINTS: Automatic mesh                          

Automatic generation of k-mesh.
Space group operators:
 irot       det(A)        alpha          n_x          n_y          n_z        tau_x        tau_y        tau_z
    1     1.000000     0.000001     1.000000     0.000000     0.000000     0.000000     0.000000     0.000000
    2    -1.000000     0.000001     1.000000     0.000000     0.000000     0.000000     0.000000     0.000000
    3     1.000000   120.000000     0.000000     0.000000    -1.000000     0.000000     0.000000     0.000000
    4    -1.000000   120.000000     0.000000     0.000000    -1.000000     0.000000     0.000000     0.000000
    5     1.000000   120.000000     0.000000     0.000000     1.000000     0.000000     0.000000     0.000000
    6    -1.000000   120.000000     0.000000     0.000000     1.000000     0.000000     0.000000     0.000000
    7     1.000000   180.000000     1.000000     0.000000     0.000000     0.000000     0.000000     0.000000
    8    -1.000000   180.000000     1.000000     0.000000     0.000000     0.000000     0.000000     0.000000
    9     1.000000   180.000000     0.500000    -0.866025     0.000000     0.000000     0.000000     0.000000
   10    -1.000000   180.000000     0.500000    -0.866025     0.000000     0.000000     0.000000     0.000000
   11     1.000000   180.000000    -0.500000    -0.866025     0.000000     0.000000     0.000000     0.000000
   12    -1.000000   180.000000    -0.500000    -0.866025     0.000000     0.000000     0.000000     0.000000
   13     1.000000    60.000000     0.000000     0.000000    -1.000000     0.000001     0.000000     0.500000
   14    -1.000000    60.000000     0.000000     0.000000    -1.000000     0.000001     0.000000     0.500000
   15     1.000000   180.000000     0.000000     0.000000     1.000000     0.000000     0.000000     0.500000
   16    -1.000000   180.000000     0.000000     0.000000     1.000000     0.000000     0.000000     0.500000
   17     1.000000    60.000000     0.000000     0.000000     1.000000     0.000000     0.000000     0.500000
   18    -1.000000    60.000000     0.000000     0.000000     1.000000     0.000000     0.000000     0.500000
   19     1.000000   180.000000     0.866025    -0.500000     0.000000     0.000000     0.000000     0.500000
   20    -1.000000   180.000000     0.866025    -0.500000     0.000000     0.000000     0.000000     0.500000
   21     1.000000   180.000000     0.000000     1.000000     0.000000     0.000001     0.000000     0.500000
   22    -1.000000   180.000000     0.000000     1.000000     0.000000     0.000001     0.000000     0.500000
   23     1.000000   180.000000     0.866025     0.500000     0.000000     0.000000     0.000000     0.500000
   24    -1.000000   180.000000     0.866025     0.500000     0.000000     0.000000     0.000000     0.500000
 
 Subroutine IBZKPT returns following result:
 ===========================================
 
 Found     96 irreducible k-points:
 
 Following reciprocal coordinates:
            Coordinates               Weight
  0.000000  0.000000  0.000000      1.000000
  0.090909  0.000000  0.000000      6.000000
  0.181818  0.000000  0.000000      6.000000
  0.272727  0.000000  0.000000      6.000000
  0.363636  0.000000  0.000000      6.000000
  0.454545  0.000000  0.000000      6.000000
  0.090909  0.090909  0.000000      6.000000
  0.181818  0.090909  0.000000     12.000000
  0.272727  0.090909  0.000000     12.000000
  0.363636  0.090909  0.000000     12.000000
  0.454545  0.090909  0.000000      6.000000
  0.181818  0.181818  0.000000      6.000000
  0.272727  0.181818  0.000000     12.000000
  0.363636  0.181818  0.000000     12.000000
  0.272727  0.272727  0.000000      6.000000
  0.363636  0.272727  0.000000      6.000000
  0.000000  0.000000  0.090909      2.000000
  0.090909  0.000000  0.090909     12.000000
  0.181818  0.000000  0.090909     12.000000
  0.272727  0.000000  0.090909     12.000000
  0.363636  0.000000  0.090909     12.000000
  0.454545  0.000000  0.090909     12.000000
  0.090909  0.090909  0.090909     12.000000
  0.181818  0.090909  0.090909     24.000000
  0.272727  0.090909  0.090909     24.000000
  0.363636  0.090909  0.090909     24.000000
  0.454545  0.090909  0.090909     12.000000
  0.181818  0.181818  0.090909     12.000000
  0.272727  0.181818  0.090909     24.000000
  0.363636  0.181818  0.090909     24.000000
  0.272727  0.272727  0.090909     12.000000
  0.363636  0.272727  0.090909     12.000000
  0.000000  0.000000  0.181818      2.000000
  0.090909  0.000000  0.181818     12.000000
  0.181818  0.000000  0.181818     12.000000
  0.272727  0.000000  0.181818     12.000000
  0.363636  0.000000  0.181818     12.000000
  0.454545  0.000000  0.181818     12.000000
  0.090909  0.090909  0.181818     12.000000
  0.181818  0.090909  0.181818     24.000000
  0.272727  0.090909  0.181818     24.000000
  0.363636  0.090909  0.181818     24.000000
  0.454545  0.090909  0.181818     12.000000
  0.181818  0.181818  0.181818     12.000000
  0.272727  0.181818  0.181818     24.000000
  0.363636  0.181818  0.181818     24.000000
  0.272727  0.272727  0.181818     12.000000
  0.363636  0.272727  0.181818     12.000000
  0.000000  0.000000  0.272727      2.000000
  0.090909  0.000000  0.272727     12.000000
  0.181818  0.000000  0.272727     12.000000
  0.272727  0.000000  0.272727     12.000000
  0.363636  0.000000  0.272727     12.000000
  0.454545  0.000000  0.272727     12.000000
  0.090909  0.090909  0.272727     12.000000
  0.181818  0.090909  0.272727     24.000000
  0.272727  0.090909  0.272727     24.000000
  0.363636  0.090909  0.272727     24.000000
  0.454545  0.090909  0.272727     12.000000
  0.181818  0.181818  0.272727     12.000000
  0.272727  0.181818  0.272727     24.000000
  0.363636  0.181818  0.272727     24.000000
  0.272727  0.272727  0.272727     12.000000
  0.363636  0.272727  0.272727     12.000000
  0.000000  0.000000  0.363636      2.000000
  0.090909  0.000000  0.363636     12.000000
  0.181818  0.000000  0.363636     12.000000
  0.272727  0.000000  0.363636     12.000000
  0.363636  0.000000  0.363636     12.000000
  0.454545  0.000000  0.363636     12.000000
  0.090909  0.090909  0.363636     12.000000
  0.181818  0.090909  0.363636     24.000000
  0.272727  0.090909  0.363636     24.000000
  0.363636  0.090909  0.363636     24.000000
  0.454545  0.090909  0.363636     12.000000
  0.181818  0.181818  0.363636     12.000000
  0.272727  0.181818  0.363636     24.000000
  0.363636  0.181818  0.363636     24.000000
  0.272727  0.272727  0.363636     12.000000
  0.363636  0.272727  0.363636     12.000000
  0.000000  0.000000  0.454545      2.000000
  0.090909  0.000000  0.454545     12.000000
  0.181818  0.000000  0.454545     12.000000
  0.272727  0.000000  0.454545     12.000000
  0.363636  0.000000  0.454545     12.000000
  0.454545  0.000000  0.454545     12.000000
  0.090909  0.090909  0.454545     12.000000
  0.181818  0.090909  0.454545     24.000000
  0.272727  0.090909  0.454545     24.000000
  0.363636  0.090909  0.454545     24.000000
  0.454545  0.090909  0.454545     12.000000
  0.181818  0.181818  0.454545     12.000000
  0.272727  0.181818  0.454545     24.000000
  0.363636  0.181818  0.454545     24.000000
  0.272727  0.272727  0.454545     12.000000
  0.363636  0.272727  0.454545     12.000000
 
 Following cartesian coordinates:
            Coordinates               Weight
  0.000000  0.000000  0.000000      1.000000
  0.026562  0.015336  0.000000      6.000000
  0.053124  0.030671  0.000000      6.000000
  0.079686  0.046007  0.000000      6.000000
  0.106248  0.061342  0.000000      6.000000
  0.132810  0.076678  0.000000      6.000000
  0.026562  0.046007  0.000000      6.000000
  0.053124  0.061342  0.000000     12.000000
  0.079686  0.076678  0.000000     12.000000
  0.106248  0.092014  0.000000     12.000000
  0.132810  0.107349  0.000000      6.000000
  0.053124  0.092014  0.000000      6.000000
  0.079686  0.107349  0.000000     12.000000
  0.106248  0.122685  0.000000     12.000000
  0.079686  0.138020  0.000000      6.000000
  0.106248  0.153356  0.000000      6.000000
  0.000000  0.000000  0.016304      2.000000
  0.026562  0.015336  0.016304     12.000000
  0.053124  0.030671  0.016304     12.000000
  0.079686  0.046007  0.016304     12.000000
  0.106248  0.061342  0.016304     12.000000
  0.132810  0.076678  0.016304     12.000000
  0.026562  0.046007  0.016304     12.000000
  0.053124  0.061342  0.016304     24.000000
  0.079686  0.076678  0.016304     24.000000
  0.106248  0.092014  0.016304     24.000000
  0.132810  0.107349  0.016304     12.000000
  0.053124  0.092014  0.016304     12.000000
  0.079686  0.107349  0.016304     24.000000
  0.106248  0.122685  0.016304     24.000000
  0.079686  0.138020  0.016304     12.000000
  0.106248  0.153356  0.016304     12.000000
  0.000000  0.000000  0.032607      2.000000
  0.026562  0.015336  0.032607     12.000000
  0.053124  0.030671  0.032607     12.000000
  0.079686  0.046007  0.032607     12.000000
  0.106248  0.061342  0.032607     12.000000
  0.132810  0.076678  0.032607     12.000000
  0.026562  0.046007  0.032607     12.000000
  0.053124  0.061342  0.032607     24.000000
  0.079686  0.076678  0.032607     24.000000
  0.106248  0.092014  0.032607     24.000000
  0.132810  0.107349  0.032607     12.000000
  0.053124  0.092014  0.032607     12.000000
  0.079686  0.107349  0.032607     24.000000
  0.106248  0.122685  0.032607     24.000000
  0.079686  0.138020  0.032607     12.000000
  0.106248  0.153356  0.032607     12.000000
  0.000000  0.000000  0.048911      2.000000
  0.026562  0.015336  0.048911     12.000000
  0.053124  0.030671  0.048911     12.000000
  0.079686  0.046007  0.048911     12.000000
  0.106248  0.061342  0.048911     12.000000
  0.132810  0.076678  0.048911     12.000000
  0.026562  0.046007  0.048911     12.000000
  0.053124  0.061342  0.048911     24.000000
  0.079686  0.076678  0.048911     24.000000
  0.106248  0.092014  0.048911     24.000000
  0.132810  0.107349  0.048911     12.000000
  0.053124  0.092014  0.048911     12.000000
  0.079686  0.107349  0.048911     24.000000
  0.106248  0.122685  0.048911     24.000000
  0.079686  0.138020  0.048911     12.000000
  0.106248  0.153356  0.048911     12.000000
  0.000000  0.000000  0.065214      2.000000
  0.026562  0.015336  0.065214     12.000000
  0.053124  0.030671  0.065214     12.000000
  0.079686  0.046007  0.065214     12.000000
  0.106248  0.061342  0.065214     12.000000
  0.132810  0.076678  0.065214     12.000000
  0.026562  0.046007  0.065214     12.000000
  0.053124  0.061342  0.065214     24.000000
  0.079686  0.076678  0.065214     24.000000
  0.106248  0.092014  0.065214     24.000000
  0.132810  0.107349  0.065214     12.000000
  0.053124  0.092014  0.065214     12.000000
  0.079686  0.107349  0.065214     24.000000
  0.106248  0.122685  0.065214     24.000000
  0.079686  0.138020  0.065214     12.000000
  0.106248  0.153356  0.065214     12.000000
  0.000000  0.000000  0.081518      2.000000
  0.026562  0.015336  0.081518     12.000000
  0.053124  0.030671  0.081518     12.000000
  0.079686  0.046007  0.081518     12.000000
  0.106248  0.061342  0.081518     12.000000
  0.132810  0.076678  0.081518     12.000000
  0.026562  0.046007  0.081518     12.000000
  0.053124  0.061342  0.081518     24.000000
  0.079686  0.076678  0.081518     24.000000
  0.106248  0.092014  0.081518     24.000000
  0.132810  0.107349  0.081518     12.000000
  0.053124  0.092014  0.081518     12.000000
  0.079686  0.107349  0.081518     24.000000
  0.106248  0.122685  0.081518     24.000000
  0.079686  0.138020  0.081518     12.000000
  0.106248  0.153356  0.081518     12.000000
 
 TETIRR: Found   1331 inequivalent tetrahedra from     7986


--------------------------------------------------------------------------------------------------------




 Dimension of arrays:
   k-points           NKPTS =     96   k-points in BZ     NKDIM =     96   number of bands    NBANDS=     20
   number of dos      NEDOS =   1601   number of ions     NIONS =      2
   non local maximal  LDIM  =      6   non local SUM 2l+1 LMDIM =     18
   total plane-waves  NPLWV =  37632
   max r-space proj   IRMAX =      1   max aug-charges    IRDMAX=  28933
   dimension x,y,z NGX =    28 NGY =   28 NGZ =   48
   dimension x,y,z NGXF=    56 NGYF=   56 NGZF=   96
   support grid    NGXF=    56 NGYF=   56 NGZF=   96
   ions per type =               2
 NGX,Y,Z   is equivalent  to a cutoff of  13.60, 13.60, 14.31 a.u.
 NGXF,Y,Z  is equivalent  to a cutoff of  27.20, 27.20, 28.62 a.u.


 I would recommend the setting:
   dimension x,y,z NGX =    27 NGY =   27 NGZ =   45
 SYSTEM =  CdIn2S4                                 
 POSCAR =  In2                                     

 Startparameter for this run:
   NWRITE =      2    write-flag & timer
   PREC   = accura    normal or accurate (medium, high low for compatibility)
   ISTART =      0    job   : 0-new  1-cont  2-samecut
   ICHARG =      2    charge: 1-file 2-atom 10-const
   ISPIN  =      1    spin polarized calculation?
   LNONCOLLINEAR =      F non collinear calculations
   LSORBIT =      F    spin-orbit coupling
   INIWAV =      1    electr: 0-lowe 1-rand  2-diag
   LASPH  =      F    aspherical Exc in radial PAW
   METAGGA=      F    non-selfconsistent MetaGGA calc.

 Electronic Relaxation 1
   ENCUT  =  600.0 eV  44.10 Ry    6.64 a.u.   6.84  6.84 11.14*2*pi/ulx,y,z
   ENINI  =  600.0     initial cutoff
   ENAUG  =  449.7 eV  augmentation charge cutoff
   NELM   =     60;   NELMIN=  2; NELMDL= -5     # of ELM steps 
   EDIFF  = 0.1E-04   stopping-criterion for ELM
   LREAL  =      F    real-space projection
   NLSPLINE    = F    spline interpolate recip. space projectors
   LCOMPAT=      F    compatible to vasp.4.4
   GGA_COMPAT  = T    GGA compatible to vasp.4.4-vasp.4.6
   LMAXPAW     = -100 max onsite density
   LMAXMIX     =    2 max onsite mixed and CHGCAR
   VOSKOWN=      0    Vosko Wilk Nusair interpolation
   ROPT   =    0.00000
 Ionic relaxation
   EDIFFG = 0.1E-03   stopping-criterion for IOM
   NSW    =      0    number of steps for IOM
   NBLOCK =      1;   KBLOCK =      1    inner block; outer block 
   IBRION =     -1    ionic relax: 0-MD 1-quasi-New 2-CG
   NFREE  =      1    steps in history (QN), initial steepest desc. (CG)
   ISIF   =      0    stress and relaxation
   IWAVPR =     10    prediction:  0-non 1-charg 2-wave 3-comb
   ISYM   =      2    0-nonsym 1-usesym 2-fastsym
   LCORR  =      T    Harris-Foulkes like correction to forces

   POTIM  = 0.5000    time-step for ionic-motion
   TEIN   =    0.0    initial temperature
   TEBEG  =    0.0;   TEEND  =   0.0 temperature during run
   SMASS  =  -3.00    Nose mass-parameter (am)
   estimated Nose-frequenzy (Omega)   =  0.10E-29 period in steps =****** mass=  -0.268E-27a.u.
   SCALEE = 1.0000    scale energy and forces
   NPACO  =    256;   APACO  = 16.0  distance and # of slots for P.C.
   PSTRESS=    0.0 pullay stress

  Mass of Ions in am
   POMASS = 114.82
  Ionic Valenz
   ZVAL   =  13.00
  Atomic Wigner-Seitz radii
   RWIGS  =  -1.00
  virtual crystal weights 
   VCA    =   1.00
   NELECT =      26.0000    total number of electrons
   NUPDOWN=      -1.0000    fix difference up-down

 DOS related values:
   EMIN   =  -5.00;   EMAX   = 10.00  energy-range for DOS
   EFERMI =   0.00
   ISMEAR =    -4;   SIGMA  =   0.20  broadening in eV -4-tet -1-fermi 0-gaus

 Electronic relaxation 2 (details)
   IALGO  =     38    algorithm
   LDIAG  =      T    sub-space diagonalisation (order eigenvalues)
   LSUBROT=      F    optimize rotation matrix (better conditioning)
   TURBO    =      0    0=normal 1=particle mesh
   IRESTART =      0    0=no restart 2=restart with 2 vectors
   NREBOOT  =      0    no. of reboots
   NMIN     =      0    reboot dimension
   EREF     =   0.00    reference energy to select bands
   IMIX   =      4    mixing-type and parameters
     AMIX     =   0.40;   BMIX     =  1.00
     AMIX_MAG =   1.60;   BMIX_MAG =  1.00
     AMIN     =   0.10
     WC   =   100.;   INIMIX=   1;  MIXPRE=   1;  MAXMIX= -45

 Intra band minimization:
   WEIMIN = 0.0000     energy-eigenvalue tresh-hold
   EBREAK =  0.13E-06  absolut break condition
   DEPER  =   0.30     relativ break condition  

   TIME   =   0.40     timestep for ELM

  volume/ion in A,a.u.               =      28.28       190.86
  Fermi-wavevector in a.u.,A,eV,Ry     =   1.263428  2.387533 21.718314  1.596251
  Thomas-Fermi vector in A             =   2.396786
 
 Write flags
   LWAVE  =      T    write WAVECAR
   LCHARG =      T    write CHGCAR
   LVTOT  =      F    write LOCPOT, total local potential
   LVHAR  =      F    write LOCPOT, Hartree potential only
   LELF   =      F    write electronic localiz. function (ELF)
   LORBIT =     11    0 simple, 1 ext, 2 COOP (PROOUT)


 Dipole corrections
   LMONO  =      F    monopole corrections only (constant potential shift)
   LDIPOL =      F    correct potential (dipole corrections)
   IDIPOL =      0    1-x, 2-y, 3-z, 4-all directions 
   EPSILON=  1.0000000 bulk dielectric constant

 Exchange correlation treatment:
   GGA     =    --    GGA type
   LEXCH   =     8    internal setting for exchange type
   VOSKOWN=      0    Vosko Wilk Nusair interpolation
   LHFCALC =     F    Hartree Fock is set to
   LHFONE  =     F    Hartree Fock one center treatment
   AEXX    =    0.0000 exact exchange contribution

 Linear response parameters
   LEPSILON=     F    determine dielectric tensor
   LRPA    =     F    only Hartree local field effects (RPA)
   LNABLA  =     F    use nabla operator in PAW spheres
   LVEL    =     F    velocity operator in full k-point grid
   LINTERFAST=   F  fast interpolation
   KINTER  =     0    interpolate to denser k-point grid
   CSHIFT  =0.1000    complex shift for real part using Kramers Kronig
   OMEGAMAX=  -1.0    maximum frequency
   DEG_THRESHOLD= 0.2000000E-02 threshold for treating states as degnerate
   RTIME   =    0.100 relaxation time in fs

 Orbital magnetization related:
   ORBITALMAG=     F  switch on orbital magnetization
   LCHIMAG   =     F  perturbation theory with respect to B field
   DQ        =  0.001000  dq finite difference perturbation B field



--------------------------------------------------------------------------------------------------------


 Static calculation
 charge density and potential will be updated during run
 non-spin polarized calculation
 Variant of blocked Davidson
 Davidson routine will perform the subspace rotation
 perform sub-space diagonalisation
    after iterative eigenvector-optimisation
 modified Broyden-mixing scheme, WC =      100.0
 initial mixing is a Kerker type mixing with AMIX =  0.4000 and BMIX =      1.0000
 Hartree-type preconditioning will be used
 using additional bands            7
 reciprocal scheme for non local part
 use partial core corrections
 calculate Harris-corrections to forces 
   (improved forces if not selfconsistent)
 use gradient corrections 
 use of overlap-Matrix (Vanderbilt PP)
 Fermi weights with tetrahedron method witout Bloechl corrections


--------------------------------------------------------------------------------------------------------


  energy-cutoff  :      600.00
  volume of cell :       56.56
      direct lattice vectors                 reciprocal lattice vectors
     3.422518000  0.000000000  0.000000000     0.292182539  0.168691698  0.000000000
    -1.711259000  2.963987000  0.000000000     0.000000000  0.337383396  0.000000000
     0.000000000  0.000000000  5.576016000     0.000000000  0.000000000  0.179339514

  length of vectors
     3.422518000  3.422517538  5.576016000     0.337383351  0.337383396  0.179339514


 
 k-points in units of 2pi/SCALE and weight: Automatic mesh                          
   0.00000000  0.00000000  0.00000000       0.001
   0.02656205  0.01533561  0.00000000       0.005
   0.05312410  0.03067122  0.00000000       0.005
   0.07968615  0.04600683  0.00000000       0.005
   0.10624820  0.06134244  0.00000000       0.005
   0.13281025  0.07667804  0.00000000       0.005
   0.02656205  0.04600683  0.00000000       0.005
   0.05312410  0.06134244  0.00000000       0.009
   0.07968615  0.07667804  0.00000000       0.009
   0.10624820  0.09201365  0.00000000       0.009
   0.13281025  0.10734926  0.00000000       0.005
   0.05312410  0.09201365  0.00000000       0.005
   0.07968615  0.10734926  0.00000000       0.009
   0.10624820  0.12268487  0.00000000       0.009
   0.07968615  0.13802048  0.00000000       0.005
   0.10624820  0.15335609  0.00000000       0.005
   0.00000000  0.00000000  0.01630359       0.002
   0.02656205  0.01533561  0.01630359       0.009
   0.05312410  0.03067122  0.01630359       0.009
   0.07968615  0.04600683  0.01630359       0.009
   0.10624820  0.06134244  0.01630359       0.009
   0.13281025  0.07667804  0.01630359       0.009
   0.02656205  0.04600683  0.01630359       0.009
   0.05312410  0.06134244  0.01630359       0.018
   0.07968615  0.07667804  0.01630359       0.018
   0.10624820  0.09201365  0.01630359       0.018
   0.13281025  0.10734926  0.01630359       0.009
   0.05312410  0.09201365  0.01630359       0.009
   0.07968615  0.10734926  0.01630359       0.018
   0.10624820  0.12268487  0.01630359       0.018
   0.07968615  0.13802048  0.01630359       0.009
   0.10624820  0.15335609  0.01630359       0.009
   0.00000000  0.00000000  0.03260718       0.002
   0.02656205  0.01533561  0.03260718       0.009
   0.05312410  0.03067122  0.03260718       0.009
   0.07968615  0.04600683  0.03260718       0.009
   0.10624820  0.06134244  0.03260718       0.009
   0.13281025  0.07667804  0.03260718       0.009
   0.02656205  0.04600683  0.03260718       0.009
   0.05312410  0.06134244  0.03260718       0.018
   0.07968615  0.07667804  0.03260718       0.018
   0.10624820  0.09201365  0.03260718       0.018
   0.13281025  0.10734926  0.03260718       0.009
   0.05312410  0.09201365  0.03260718       0.009
   0.07968615  0.10734926  0.03260718       0.018
   0.10624820  0.12268487  0.03260718       0.018
   0.07968615  0.13802048  0.03260718       0.009
   0.10624820  0.15335609  0.03260718       0.009
   0.00000000  0.00000000  0.04891078       0.002
   0.02656205  0.01533561  0.04891078       0.009
   0.05312410  0.03067122  0.04891078       0.009
   0.07968615  0.04600683  0.04891078       0.009
   0.10624820  0.06134244  0.04891078       0.009
   0.13281025  0.07667804  0.04891078       0.009
   0.02656205  0.04600683  0.04891078       0.009
   0.05312410  0.06134244  0.04891078       0.018
   0.07968615  0.07667804  0.04891078       0.018
   0.10624820  0.09201365  0.04891078       0.018
   0.13281025  0.10734926  0.04891078       0.009
   0.05312410  0.09201365  0.04891078       0.009
   0.07968615  0.10734926  0.04891078       0.018
   0.10624820  0.12268487  0.04891078       0.018
   0.07968615  0.13802048  0.04891078       0.009
   0.10624820  0.15335609  0.04891078       0.009
   0.00000000  0.00000000  0.06521437       0.002
   0.02656205  0.01533561  0.06521437       0.009
   0.05312410  0.03067122  0.06521437       0.009
   0.07968615  0.04600683  0.06521437       0.009
   0.10624820  0.06134244  0.06521437       0.009
   0.13281025  0.07667804  0.06521437       0.009
   0.02656205  0.04600683  0.06521437       0.009
   0.05312410  0.06134244  0.06521437       0.018
   0.07968615  0.07667804  0.06521437       0.018
   0.10624820  0.09201365  0.06521437       0.018
   0.13281025  0.10734926  0.06521437       0.009
   0.05312410  0.09201365  0.06521437       0.009
   0.07968615  0.10734926  0.06521437       0.018
   0.10624820  0.12268487  0.06521437       0.018
   0.07968615  0.13802048  0.06521437       0.009
   0.10624820  0.15335609  0.06521437       0.009
   0.00000000  0.00000000  0.08151796       0.002
   0.02656205  0.01533561  0.08151796       0.009
   0.05312410  0.03067122  0.08151796       0.009
   0.07968615  0.04600683  0.08151796       0.009
   0.10624820  0.06134244  0.08151796       0.009
   0.13281025  0.07667804  0.08151796       0.009
   0.02656205  0.04600683  0.08151796       0.009
   0.05312410  0.06134244  0.08151796       0.018
   0.07968615  0.07667804  0.08151796       0.018
   0.10624820  0.09201365  0.08151796       0.018
   0.13281025  0.10734926  0.08151796       0.009
   0.05312410  0.09201365  0.08151796       0.009
   0.07968615  0.10734926  0.08151796       0.018
   0.10624820  0.12268487  0.08151796       0.018
   0.07968615  0.13802048  0.08151796       0.009
   0.10624820  0.15335609  0.08151796       0.009
 
 k-points in reciprocal lattice and weights: Automatic mesh                          
   0.00000000  0.00000000  0.00000000       0.001
   0.09090909  0.00000000  0.00000000       0.005
   0.18181818  0.00000000  0.00000000       0.005
   0.27272727  0.00000000  0.00000000       0.005
   0.36363636  0.00000000  0.00000000       0.005
   0.45454545  0.00000000  0.00000000       0.005
   0.09090909  0.09090909  0.00000000       0.005
   0.18181818  0.09090909  0.00000000       0.009
   0.27272727  0.09090909  0.00000000       0.009
   0.36363636  0.09090909  0.00000000       0.009
   0.45454545  0.09090909  0.00000000       0.005
   0.18181818  0.18181818  0.00000000       0.005
   0.27272727  0.18181818  0.00000000       0.009
   0.36363636  0.18181818  0.00000000       0.009
   0.27272727  0.27272727  0.00000000       0.005
   0.36363636  0.27272727  0.00000000       0.005
   0.00000000  0.00000000  0.09090909       0.002
   0.09090909  0.00000000  0.09090909       0.009
   0.18181818  0.00000000  0.09090909       0.009
   0.27272727  0.00000000  0.09090909       0.009
   0.36363636  0.00000000  0.09090909       0.009
   0.45454545  0.00000000  0.09090909       0.009
   0.09090909  0.09090909  0.09090909       0.009
   0.18181818  0.09090909  0.09090909       0.018
   0.27272727  0.09090909  0.09090909       0.018
   0.36363636  0.09090909  0.09090909       0.018
   0.45454545  0.09090909  0.09090909       0.009
   0.18181818  0.18181818  0.09090909       0.009
   0.27272727  0.18181818  0.09090909       0.018
   0.36363636  0.18181818  0.09090909       0.018
   0.27272727  0.27272727  0.09090909       0.009
   0.36363636  0.27272727  0.09090909       0.009
   0.00000000  0.00000000  0.18181818       0.002
   0.09090909  0.00000000  0.18181818       0.009
   0.18181818  0.00000000  0.18181818       0.009
   0.27272727  0.00000000  0.18181818       0.009
   0.36363636  0.00000000  0.18181818       0.009
   0.45454545  0.00000000  0.18181818       0.009
   0.09090909  0.09090909  0.18181818       0.009
   0.18181818  0.09090909  0.18181818       0.018
   0.27272727  0.09090909  0.18181818       0.018
   0.36363636  0.09090909  0.18181818       0.018
   0.45454545  0.09090909  0.18181818       0.009
   0.18181818  0.18181818  0.18181818       0.009
   0.27272727  0.18181818  0.18181818       0.018
   0.36363636  0.18181818  0.18181818       0.018
   0.27272727  0.27272727  0.18181818       0.009
   0.36363636  0.27272727  0.18181818       0.009
   0.00000000  0.00000000  0.27272727       0.002
   0.09090909  0.00000000  0.27272727       0.009
   0.18181818  0.00000000  0.27272727       0.009
   0.27272727  0.00000000  0.27272727       0.009
   0.36363636  0.00000000  0.27272727       0.009
   0.45454545  0.00000000  0.27272727       0.009
   0.09090909  0.09090909  0.27272727       0.009
   0.18181818  0.09090909  0.27272727       0.018
   0.27272727  0.09090909  0.27272727       0.018
   0.36363636  0.09090909  0.27272727       0.018
   0.45454545  0.09090909  0.27272727       0.009
   0.18181818  0.18181818  0.27272727       0.009
   0.27272727  0.18181818  0.27272727       0.018
   0.36363636  0.18181818  0.27272727       0.018
   0.27272727  0.27272727  0.27272727       0.009
   0.36363636  0.27272727  0.27272727       0.009
   0.00000000  0.00000000  0.36363636       0.002
   0.09090909  0.00000000  0.36363636       0.009
   0.18181818  0.00000000  0.36363636       0.009
   0.27272727  0.00000000  0.36363636       0.009
   0.36363636  0.00000000  0.36363636       0.009
   0.45454545  0.00000000  0.36363636       0.009
   0.09090909  0.09090909  0.36363636       0.009
   0.18181818  0.09090909  0.36363636       0.018
   0.27272727  0.09090909  0.36363636       0.018
   0.36363636  0.09090909  0.36363636       0.018
   0.45454545  0.09090909  0.36363636       0.009
   0.18181818  0.18181818  0.36363636       0.009
   0.27272727  0.18181818  0.36363636       0.018
   0.36363636  0.18181818  0.36363636       0.018
   0.27272727  0.27272727  0.36363636       0.009
   0.36363636  0.27272727  0.36363636       0.009
   0.00000000  0.00000000  0.45454545       0.002
   0.09090909  0.00000000  0.45454545       0.009
   0.18181818  0.00000000  0.45454545       0.009
   0.27272727  0.00000000  0.45454545       0.009
   0.36363636  0.00000000  0.45454545       0.009
   0.45454545  0.00000000  0.45454545       0.009
   0.09090909  0.09090909  0.45454545       0.009
   0.18181818  0.09090909  0.45454545       0.018
   0.27272727  0.09090909  0.45454545       0.018
   0.36363636  0.09090909  0.45454545       0.018
   0.45454545  0.09090909  0.45454545       0.009
   0.18181818  0.18181818  0.45454545       0.009
   0.27272727  0.18181818  0.45454545       0.018
   0.36363636  0.18181818  0.45454545       0.018
   0.27272727  0.27272727  0.45454545       0.009
   0.36363636  0.27272727  0.45454545       0.009
 
 position of ions in fractional coordinates (direct lattice) 
   0.66666700  0.33333300  0.75000000
   0.33333300  0.66666700  0.25000000
 
 position of ions in cartesian coordinates  (Angst):
   1.71126071  0.98799468  4.18201200
  -0.00000171  1.97599232  1.39400400
 


--------------------------------------------------------------------------------------------------------


 k-point  1 :   0.0000 0.0000 0.0000  plane waves:    1847
 k-point  2 :   0.0909 0.0000 0.0000  plane waves:    1868
 k-point  3 :   0.1818 0.0000 0.0000  plane waves:    1882
 k-point  4 :   0.2727 0.0000 0.0000  plane waves:    1884
 k-point  5 :   0.3636 0.0000 0.0000  plane waves:    1892
 k-point  6 :   0.4545 0.0000 0.0000  plane waves:    1896
 k-point  7 :   0.0909 0.0909 0.0000  plane waves:    1869
 k-point  8 :   0.1818 0.0909 0.0000  plane waves:    1882
 k-point  9 :   0.2727 0.0909 0.0000  plane waves:    1889
 k-point 10 :   0.3636 0.0909 0.0000  plane waves:    1895
 k-point 11 :   0.4545 0.0909 0.0000  plane waves:    1896
 k-point 12 :   0.1818 0.1818 0.0000  plane waves:    1883
 k-point 13 :   0.2727 0.1818 0.0000  plane waves:    1892
 k-point 14 :   0.3636 0.1818 0.0000  plane waves:    1892
 k-point 15 :   0.2727 0.2727 0.0000  plane waves:    1893
 k-point 16 :   0.3636 0.2727 0.0000  plane waves:    1893
 k-point 17 :   0.0000 0.0000 0.0909  plane waves:    1865
 k-point 18 :   0.0909 0.0000 0.0909  plane waves:    1877
 k-point 19 :   0.1818 0.0000 0.0909  plane waves:    1875
 k-point 20 :   0.2727 0.0000 0.0909  plane waves:    1884
 k-point 21 :   0.3636 0.0000 0.0909  plane waves:    1891
 k-point 22 :   0.4545 0.0000 0.0909  plane waves:    1896
 k-point 23 :   0.0909 0.0909 0.0909  plane waves:    1873
 k-point 24 :   0.1818 0.0909 0.0909  plane waves:    1877
 k-point 25 :   0.2727 0.0909 0.0909  plane waves:    1886
 k-point 26 :   0.3636 0.0909 0.0909  plane waves:    1896
 k-point 27 :   0.4545 0.0909 0.0909  plane waves:    1890
 k-point 28 :   0.1818 0.1818 0.0909  plane waves:    1878
 k-point 29 :   0.2727 0.1818 0.0909  plane waves:    1889
 k-point 30 :   0.3636 0.1818 0.0909  plane waves:    1889
 k-point 31 :   0.2727 0.2727 0.0909  plane waves:    1889
 k-point 32 :   0.3636 0.2727 0.0909  plane waves:    1890
 k-point 33 :   0.0000 0.0000 0.1818  plane waves:    1876
 k-point 34 :   0.0909 0.0000 0.1818  plane waves:    1878
 k-point 35 :   0.1818 0.0000 0.1818  plane waves:    1877
 k-point 36 :   0.2727 0.0000 0.1818  plane waves:    1891
 k-point 37 :   0.3636 0.0000 0.1818  plane waves:    1892
 k-point 38 :   0.4545 0.0000 0.1818  plane waves:    1898
 k-point 39 :   0.0909 0.0909 0.1818  plane waves:    1875
 k-point 40 :   0.1818 0.0909 0.1818  plane waves:    1878
 k-point 41 :   0.2727 0.0909 0.1818  plane waves:    1888
 k-point 42 :   0.3636 0.0909 0.1818  plane waves:    1895
 k-point 43 :   0.4545 0.0909 0.1818  plane waves:    1900
 k-point 44 :   0.1818 0.1818 0.1818  plane waves:    1881
 k-point 45 :   0.2727 0.1818 0.1818  plane waves:    1887
 k-point 46 :   0.3636 0.1818 0.1818  plane waves:    1885
 k-point 47 :   0.2727 0.2727 0.1818  plane waves:    1889
 k-point 48 :   0.3636 0.2727 0.1818  plane waves:    1896
 k-point 49 :   0.0000 0.0000 0.2727  plane waves:    1882
 k-point 50 :   0.0909 0.0000 0.2727  plane waves:    1873
 k-point 51 :   0.1818 0.0000 0.2727  plane waves:    1882
 k-point 52 :   0.2727 0.0000 0.2727  plane waves:    1890
 k-point 53 :   0.3636 0.0000 0.2727  plane waves:    1898
 k-point 54 :   0.4545 0.0000 0.2727  plane waves:    1892
 k-point 55 :   0.0909 0.0909 0.2727  plane waves:    1883
 k-point 56 :   0.1818 0.0909 0.2727  plane waves:    1889
 k-point 57 :   0.2727 0.0909 0.2727  plane waves:    1888
 k-point 58 :   0.3636 0.0909 0.2727  plane waves:    1893
 k-point 59 :   0.4545 0.0909 0.2727  plane waves:    1899
 k-point 60 :   0.1818 0.1818 0.2727  plane waves:    1880
 k-point 61 :   0.2727 0.1818 0.2727  plane waves:    1881
 k-point 62 :   0.3636 0.1818 0.2727  plane waves:    1889
 k-point 63 :   0.2727 0.2727 0.2727  plane waves:    1890
 k-point 64 :   0.3636 0.2727 0.2727  plane waves:    1896
 k-point 65 :   0.0000 0.0000 0.3636  plane waves:    1882
 k-point 66 :   0.0909 0.0000 0.3636  plane waves:    1881
 k-point 67 :   0.1818 0.0000 0.3636  plane waves:    1881
 k-point 68 :   0.2727 0.0000 0.3636  plane waves:    1898
 k-point 69 :   0.3636 0.0000 0.3636  plane waves:    1886
 k-point 70 :   0.4545 0.0000 0.3636  plane waves:    1884
 k-point 71 :   0.0909 0.0909 0.3636  plane waves:    1887
 k-point 72 :   0.1818 0.0909 0.3636  plane waves:    1892
 k-point 73 :   0.2727 0.0909 0.3636  plane waves:    1888
 k-point 74 :   0.3636 0.0909 0.3636  plane waves:    1888
 k-point 75 :   0.4545 0.0909 0.3636  plane waves:    1893
 k-point 76 :   0.1818 0.1818 0.3636  plane waves:    1891
 k-point 77 :   0.2727 0.1818 0.3636  plane waves:    1886
 k-point 78 :   0.3636 0.1818 0.3636  plane waves:    1897
 k-point 79 :   0.2727 0.2727 0.3636  plane waves:    1879
 k-point 80 :   0.3636 0.2727 0.3636  plane waves:    1896
 k-point 81 :   0.0000 0.0000 0.4545  plane waves:    1888
 k-point 82 :   0.0909 0.0000 0.4545  plane waves:    1886
 k-point 83 :   0.1818 0.0000 0.4545  plane waves:    1886
 k-point 84 :   0.2727 0.0000 0.4545  plane waves:    1894
 k-point 85 :   0.3636 0.0000 0.4545  plane waves:    1883
 k-point 86 :   0.4545 0.0000 0.4545  plane waves:    1894
 k-point 87 :   0.0909 0.0909 0.4545  plane waves:    1886
 k-point 88 :   0.1818 0.0909 0.4545  plane waves:    1893
 k-point 89 :   0.2727 0.0909 0.4545  plane waves:    1889
 k-point 90 :   0.3636 0.0909 0.4545  plane waves:    1887
 k-point 91 :   0.4545 0.0909 0.4545  plane waves:    1888
 k-point 92 :   0.1818 0.1818 0.4545  plane waves:    1896
 k-point 93 :   0.2727 0.1818 0.4545  plane waves:    1889
 k-point 94 :   0.3636 0.1818 0.4545  plane waves:    1892
 k-point 95 :   0.2727 0.2727 0.4545  plane waves:    1880
 k-point 96 :   0.3636 0.2727 0.4545  plane waves:    1892

 maximum and minimum number of plane-waves per node :       249      221

 maximum number of plane-waves:      1900
 maximum index in each direction: 
   IXMAX=    6   IYMAX=    6   IZMAX=   11
   IXMIN=   -7   IYMIN=   -7   IZMIN=  -11

 NGX is ok and might be reduce to  28
 NGY is ok and might be reduce to  28
 NGZ is ok and might be reduce to  46

 parallel 3D FFT for wavefunctions:
    minimum data exchange during FFTs selected (reduces bandwidth)
 parallel 3D FFT for charge:
    minimum data exchange during FFTs selected (reduces bandwidth)


 total amount of memory used by VASP on root node    36594. kBytes
========================================================================

   base      :      30000. kBytes
   nonl-proj :       3325. kBytes
   fftplans  :        518. kBytes
   grid      :        740. kBytes
   one-center:         15. kBytes
   wavefun   :       1996. kBytes
 
     INWAV:  cpu time    0.00: real time    0.00
 Broyden mixing: mesh for mixing (old mesh)
   NGX = 13   NGY = 13   NGZ = 23
  (NGX  = 56   NGY  = 56   NGZ  = 96)
  gives a total of   3887 points

 initial charge density was supplied:
 charge density of overlapping atoms calculated
 number of electron      26.0000000 magnetization 
 keeping initial charge density in first step


--------------------------------------------------------------------------------------------------------


 Maximum index for augmentation-charges         1118 (set IRDMAX)


--------------------------------------------------------------------------------------------------------


 First call to EWALD:  gamma=   0.462
 Maximum number of real-space cells 3x 3x 2
 Maximum number of reciprocal cells 3x 3x 4

 FEWALD executed in parallel
    FEWALD:  cpu time    0.01: real time    0.01


----------------------------------------- Iteration    1(   1)  ---------------------------------------


    POTLOK:  cpu time    0.02: real time    0.03
    SETDIJ:  cpu time    0.04: real time    0.04
     EDDAV:  cpu time    2.24: real time    2.26
 BZINTS: Fermi energy: 13.960149; 26.000000 electrons
         Band energy:  98.613966;  BLOECHL correction:  0.000000
       DOS:  cpu time    0.77: real time    0.78
    --------------------------------------------
      LOOP:  cpu time    3.08: real time    3.10

 eigenvalue-minimisations  :  3852
 total energy-change (2. order) : 0.2205896E+03  (-0.1427190E+04)
 number of electron      26.0000000 magnetization 
 augmentation part       26.0000000 magnetization 

 Free energy of the ion-electron system (eV)
  ---------------------------------------------------
  alpha Z        PSCENC =        64.90522114
  Ewald energy   TEWEN  =     -2306.88382620
  -Hartree energ DENC   =      -891.43403289
  -exchange      EXHF   =         0.00000000
  -V(xc)+E(xc)   XCENC  =        83.11550957
  PAW double counting   =      2761.88044603    -2743.26598387
  entropy T*S    EENTRO =         0.00000000
  eigenvalues    EBANDS =        98.61396627
  atomic energy  EATOM  =      3153.65828277
  ---------------------------------------------------
  free energy    TOTEN  =       220.58958284 eV

  energy without entropy =      220.58958284  energy(sigma->0) =      220.58958284


--------------------------------------------------------------------------------------------------------




----------------------------------------- Iteration    1(   2)  ---------------------------------------


     EDDAV:  cpu time    2.25: real time    2.25
 BZINTS: Fermi energy:  7.387596; 26.000000 electrons
         Band energy:-110.282326;  BLOECHL correction:  0.000000
       DOS:  cpu time    0.05: real time    0.05
    --------------------------------------------
      LOOP:  cpu time    3.08: real time    3.08

 eigenvalue-minimisations  :  3864
 total energy-change (2. order) :-0.2088963E+03  (-0.2050738E+03)
 number of electron      26.0000000 magnetization 
 augmentation part       26.0000000 magnetization 

 Free energy of the ion-electron system (eV)
  ---------------------------------------------------
  alpha Z        PSCENC =        64.90522114
  Ewald energy   TEWEN  =     -2306.88382620
  -Hartree energ DENC   =      -891.43403289
  -exchange      EXHF   =         0.00000000
  -V(xc)+E(xc)   XCENC  =        83.11550957
  PAW double counting   =      2761.88044603    -2743.26598387
  entropy T*S    EENTRO =         0.00000000
  eigenvalues    EBANDS =      -110.28232631
  atomic energy  EATOM  =      3153.65828277
  ---------------------------------------------------
  free energy    TOTEN  =        11.69329025 eV

  energy without entropy =       11.69329025  energy(sigma->0) =       11.69329025


--------------------------------------------------------------------------------------------------------




----------------------------------------- Iteration    1(   3)  ---------------------------------------


     EDDAV:  cpu time    2.48: real time    2.48
 BZINTS: Fermi energy:  6.838654; 26.000000 electrons
         Band energy:-126.506403;  BLOECHL correction:  0.000000
       DOS:  cpu time    0.06: real time    0.06
    --------------------------------------------
      LOOP:  cpu time    2.59: real time    2.59

 eigenvalue-minimisations  :  4448
 total energy-change (2. order) :-0.1622408E+02  (-0.1611420E+02)
 number of electron      26.0000000 magnetization 
 augmentation part       26.0000000 magnetization 

 Free energy of the ion-electron system (eV)
  ---------------------------------------------------
  alpha Z        PSCENC =        64.90522114
  Ewald energy   TEWEN  =     -2306.88382620
  -Hartree energ DENC   =      -891.43403289
  -exchange      EXHF   =         0.00000000
  -V(xc)+E(xc)   XCENC  =        83.11550957
  PAW double counting   =      2761.88044603    -2743.26598387
  entropy T*S    EENTRO =         0.00000000
  eigenvalues    EBANDS =      -126.50640287
  atomic energy  EATOM  =      3153.65828277
  ---------------------------------------------------
  free energy    TOTEN  =        -4.53078631 eV

  energy without entropy =       -4.53078631  energy(sigma->0) =       -4.53078631


--------------------------------------------------------------------------------------------------------




----------------------------------------- Iteration    1(   4)  ---------------------------------------


     EDDAV:  cpu time    2.54: real time    2.55
 BZINTS: Fermi energy:  6.816843; 26.000000 electrons
         Band energy:-126.990054;  BLOECHL correction:  0.000000
       DOS:  cpu time    0.06: real time    0.06
    --------------------------------------------
      LOOP:  cpu time    2.67: real time    2.67

 eigenvalue-minimisations  :  4644
 total energy-change (2. order) :-0.4836509E+00  (-0.4833945E+00)
 number of electron      26.0000000 magnetization 
 augmentation part       26.0000000 magnetization 

 Free energy of the ion-electron system (eV)
  ---------------------------------------------------
  alpha Z        PSCENC =        64.90522114
  Ewald energy   TEWEN  =     -2306.88382620
  -Hartree energ DENC   =      -891.43403289
  -exchange      EXHF   =         0.00000000
  -V(xc)+E(xc)   XCENC  =        83.11550957
  PAW double counting   =      2761.88044603    -2743.26598387
  entropy T*S    EENTRO =         0.00000000
  eigenvalues    EBANDS =      -126.99005380
  atomic energy  EATOM  =      3153.65828277
  ---------------------------------------------------
  free energy    TOTEN  =        -5.01443724 eV

  energy without entropy =       -5.01443724  energy(sigma->0) =       -5.01443724


--------------------------------------------------------------------------------------------------------




----------------------------------------- Iteration    1(   5)  ---------------------------------------


     EDDAV:  cpu time    2.82: real time    2.82
 BZINTS: Fermi energy:  6.815451; 26.000000 electrons
         Band energy:-127.016286;  BLOECHL correction:  0.000000
       DOS:  cpu time    0.06: real time    0.06
    CHARGE:  cpu time    0.14: real time    0.14
    MIXING:  cpu time    0.01: real time    0.02
    --------------------------------------------
      LOOP:  cpu time    3.10: real time    3.11

 eigenvalue-minimisations  :  5508
 total energy-change (2. order) :-0.2623178E-01  (-0.2623056E-01)
 number of electron      25.9999996 magnetization 
 augmentation part       13.8240108 magnetization 

 Broyden mixing:
  rms(total) = 0.28597E+00    rms(broyden)= 0.28597E+00
  rms(prec ) = 0.33834E+00
  weight for this iteration     100.00

 Free energy of the ion-electron system (eV)
  ---------------------------------------------------
  alpha Z        PSCENC =        64.90522114
  Ewald energy   TEWEN  =     -2306.88382620
  -Hartree energ DENC   =      -891.43403289
  -exchange      EXHF   =         0.00000000
  -V(xc)+E(xc)   XCENC  =        83.11550957
  PAW double counting   =      2761.88044603    -2743.26598387
  entropy T*S    EENTRO =         0.00000000
  eigenvalues    EBANDS =      -127.01628558
  atomic energy  EATOM  =      3153.65828277
  ---------------------------------------------------
  free energy    TOTEN  =        -5.04066902 eV

  energy without entropy =       -5.04066902  energy(sigma->0) =       -5.04066902


--------------------------------------------------------------------------------------------------------




----------------------------------------- Iteration    1(   6)  ---------------------------------------


    POTLOK:  cpu time    0.02: real time    0.02
    SETDIJ:  cpu time    0.00: real time    0.00
     EDDAV:  cpu time    2.75: real time    2.75
 BZINTS: Fermi energy:  6.773407; 26.000000 electrons
         Band energy:-133.222835;  BLOECHL correction:  0.000000
       DOS:  cpu time    0.06: real time    0.06
    CHARGE:  cpu time    0.14: real time    0.14
    MIXING:  cpu time    0.00: real time    0.00
    --------------------------------------------
      LOOP:  cpu time    2.99: real time    2.99

 eigenvalue-minimisations  :  5232
 total energy-change (2. order) : 0.3614560E-01  (-0.7037618E-02)
 number of electron      25.9999996 magnetization 
 augmentation part       13.8600250 magnetization 

 Broyden mixing:
  rms(total) = 0.13033E+00    rms(broyden)= 0.13033E+00
  rms(prec ) = 0.15588E+00
  weight for this iteration     100.00

 eigenvalues of (default mixing * dielectric matrix)
  average eigenvalue GAMMA=   1.7240
  1.7240

 Free energy of the ion-electron system (eV)
  ---------------------------------------------------
  alpha Z        PSCENC =        64.90522114
  Ewald energy   TEWEN  =     -2306.88382620
  -Hartree energ DENC   =      -884.92660750
  -exchange      EXHF   =         0.00000000
  -V(xc)+E(xc)   XCENC  =        82.85490808
  PAW double counting   =      3031.08563039    -3012.47529681
  entropy T*S    EENTRO =         0.00000000
  eigenvalues    EBANDS =      -133.22283528
  atomic energy  EATOM  =      3153.65828277
  ---------------------------------------------------
  free energy    TOTEN  =        -5.00452341 eV

  energy without entropy =       -5.00452341  energy(sigma->0) =       -5.00452341


--------------------------------------------------------------------------------------------------------




----------------------------------------- Iteration    1(   7)  ---------------------------------------


    POTLOK:  cpu time    0.02: real time    0.02
    SETDIJ:  cpu time    0.00: real time    0.00
     EDDAV:  cpu time    2.74: real time    2.74
 BZINTS: Fermi energy:  6.743405; 26.000000 electrons
         Band energy:-137.091438;  BLOECHL correction:  0.000000
       DOS:  cpu time    0.06: real time    0.06
    CHARGE:  cpu time    0.15: real time    0.15
    MIXING:  cpu time    0.00: real time    0.00
    --------------------------------------------
      LOOP:  cpu time    2.98: real time    2.98

 eigenvalue-minimisations  :  5212
 total energy-change (2. order) : 0.6960700E-02  (-0.1962784E-02)
 number of electron      25.9999996 magnetization 
 augmentation part       13.8787365 magnetization 

 Broyden mixing:
  rms(total) = 0.32863E-01    rms(broyden)= 0.32863E-01
  rms(prec ) = 0.41810E-01
  weight for this iteration     100.00

 eigenvalues of (default mixing * dielectric matrix)
  average eigenvalue GAMMA=   1.9440
  1.3149  2.5731

 Free energy of the ion-electron system (eV)
  ---------------------------------------------------
  alpha Z        PSCENC =        64.90522114
  Ewald energy   TEWEN  =     -2306.88382620
  -Hartree energ DENC   =      -880.64886296
  -exchange      EXHF   =         0.00000000
  -V(xc)+E(xc)   XCENC  =        82.69333172
  PAW double counting   =      3271.25893779    -3252.88920935
  entropy T*S    EENTRO =         0.00000000
  eigenvalues    EBANDS =      -137.09143762
  atomic energy  EATOM  =      3153.65828277
  ---------------------------------------------------
  free energy    TOTEN  =        -4.99756271 eV

  energy without entropy =       -4.99756271  energy(sigma->0) =       -4.99756271


--------------------------------------------------------------------------------------------------------




----------------------------------------- Iteration    1(   8)  ---------------------------------------


    POTLOK:  cpu time    0.02: real time    0.02
    SETDIJ:  cpu time    0.00: real time    0.00
     EDDAV:  cpu time    2.53: real time    2.53
 BZINTS: Fermi energy:  6.735925; 26.000000 electrons
         Band energy:-137.541434;  BLOECHL correction:  0.000000
       DOS:  cpu time    0.07: real time    0.06
    CHARGE:  cpu time    0.14: real time    0.15
    MIXING:  cpu time    0.00: real time    0.00
    --------------------------------------------
      LOOP:  cpu time    2.77: real time    2.77

 eigenvalue-minimisations  :  4572
 total energy-change (2. order) : 0.4469119E-03  (-0.1232794E-03)
 number of electron      25.9999996 magnetization 
 augmentation part       13.8771645 magnetization 

 Broyden mixing:
  rms(total) = 0.46187E-02    rms(broyden)= 0.46186E-02
  rms(prec ) = 0.51858E-02
  weight for this iteration     100.00

 eigenvalues of (default mixing * dielectric matrix)
  average eigenvalue GAMMA=   1.6732
  1.0003  1.4804  2.5388

 Free energy of the ion-electron system (eV)
  ---------------------------------------------------
  alpha Z        PSCENC =        64.90522114
  Ewald energy   TEWEN  =     -2306.88382620
  -Hartree energ DENC   =      -879.92152268
  -exchange      EXHF   =         0.00000000
  -V(xc)+E(xc)   XCENC  =        82.67497986
  PAW double counting   =      3362.64406155    -3344.53287776
  entropy T*S    EENTRO =         0.00000000
  eigenvalues    EBANDS =      -137.54143449
  atomic energy  EATOM  =      3153.65828277
  ---------------------------------------------------
  free energy    TOTEN  =        -4.99711580 eV

  energy without entropy =       -4.99711580  energy(sigma->0) =       -4.99711580


--------------------------------------------------------------------------------------------------------




----------------------------------------- Iteration    1(   9)  ---------------------------------------


    POTLOK:  cpu time    0.02: real time    0.02
    SETDIJ:  cpu time    0.00: real time    0.00
     EDDAV:  cpu time    2.72: real time    2.73
 BZINTS: Fermi energy:  6.736038; 26.000000 electrons
         Band energy:-137.490787;  BLOECHL correction:  0.000000
       DOS:  cpu time    0.06: real time    0.06
    CHARGE:  cpu time    0.15: real time    0.15
    MIXING:  cpu time    0.00: real time    0.00
    --------------------------------------------
      LOOP:  cpu time    2.96: real time    2.97

 eigenvalue-minimisations  :  5100
 total energy-change (2. order) :-0.1536599E-04  (-0.5500356E-05)
 number of electron      25.9999996 magnetization 
 augmentation part       13.8769461 magnetization 

 Broyden mixing:
  rms(total) = 0.17096E-02    rms(broyden)= 0.17096E-02
  rms(prec ) = 0.22166E-02
  weight for this iteration     100.00

 eigenvalues of (default mixing * dielectric matrix)
  average eigenvalue GAMMA=   1.7224
  2.4760  2.2010  1.3989  0.8137

 Free energy of the ion-electron system (eV)
  ---------------------------------------------------
  alpha Z        PSCENC =        64.90522114
  Ewald energy   TEWEN  =     -2306.88382620
  -Hartree energ DENC   =      -879.97498763
  -exchange      EXHF   =         0.00000000
  -V(xc)+E(xc)   XCENC  =        82.67747561
  PAW double counting   =      3357.35551430    -3339.24402456
  entropy T*S    EENTRO =         0.00000000
  eigenvalues    EBANDS =      -137.49078660
  atomic energy  EATOM  =      3153.65828277
  ---------------------------------------------------
  free energy    TOTEN  =        -4.99713117 eV

  energy without entropy =       -4.99713117  energy(sigma->0) =       -4.99713117


--------------------------------------------------------------------------------------------------------




----------------------------------------- Iteration    1(  10)  ---------------------------------------


    POTLOK:  cpu time    0.02: real time    0.02
    SETDIJ:  cpu time    0.00: real time    0.00
     EDDAV:  cpu time    1.78: real time    1.78
 BZINTS: Fermi energy:  6.735531; 26.000000 electrons
         Band energy:-137.554022;  BLOECHL correction:  0.000000
       DOS:  cpu time    0.06: real time    0.06
    --------------------------------------------
      LOOP:  cpu time    1.87: real time    1.87

 eigenvalue-minimisations  :  2320
 total energy-change (2. order) :-0.6531302E-05  (-0.9410318E-06)
 number of electron      25.9999996 magnetization 
 augmentation part       13.8769461 magnetization 

 Free energy of the ion-electron system (eV)
  ---------------------------------------------------
  alpha Z        PSCENC =        64.90522114
  Ewald energy   TEWEN  =     -2306.88382620
  -Hartree energ DENC   =      -879.92229923
  -exchange      EXHF   =         0.00000000
  -V(xc)+E(xc)   XCENC  =        82.67546914
  PAW double counting   =      3354.95409116    -3336.83005414
  entropy T*S    EENTRO =         0.00000000
  eigenvalues    EBANDS =      -137.55402235
  atomic energy  EATOM  =      3153.65828277
  ---------------------------------------------------
  free energy    TOTEN  =        -4.99713770 eV

  energy without entropy =       -4.99713770  energy(sigma->0) =       -4.99713770


--------------------------------------------------------------------------------------------------------




 average (electrostatic) potential at core
  the test charge radii are     1.0774
  (the norm of the test charge is              1.0000)
       1 -94.6033       2 -94.6033
 
 
 
 E-fermi :   6.7355     XC(G=0):  -9.8860     alpha+bet :-11.9511


 k-point     1 :       0.0000    0.0000    0.0000
  band No.  band energies     occupation 
      1      -7.9213      2.00000
      2      -7.8766      2.00000
      3      -7.8558      2.00000
      4      -7.8558      2.00000
      5      -7.8330      2.00000
      6      -7.8330      2.00000
      7      -7.7869      2.00000
      8      -7.7869      2.00000
      9      -7.6272      2.00000
     10      -7.6272      2.00000
     11      -2.3513      2.00000
     12       2.4172      2.00000
     13       3.6329      2.00000
     14      14.4535      0.00000
     15      14.4536      0.00000
     16      16.2069      0.00000
     17      16.2070      0.00000
     18      16.7435      0.00000
     19      17.2878      0.00000
     20      17.5113      0.00000

 k-point     2 :       0.0909    0.0000    0.0000
  band No.  band energies     occupation 
      1      -7.9158      2.00000
      2      -7.8826      2.00000
      3      -7.8425      2.00000
      4      -7.8370      2.00000
      5      -7.8296      2.00000
      6      -7.8151      2.00000
      7      -7.7968      2.00000
      8      -7.7945      2.00000
      9      -7.6416      2.00000
     10      -7.6246      2.00000
     11      -2.2004      2.00000
     12       2.5467      2.00000
     13       3.8057      2.00000
     14      12.7630      0.00000
     15      13.7017      0.00000
     16      15.3421      0.00000
     17      16.6276      0.00000
     18      16.6552      0.00000
     19      17.3267      0.00000
     20      18.2454      0.00000

 k-point     3 :       0.1818    0.0000    0.0000
  band No.  band energies     occupation 
      1      -7.9358      2.00000
      2      -7.8657      2.00000
      3      -7.8385      2.00000
      4      -7.8256      2.00000
      5      -7.8134      2.00000
      6      -7.7885      2.00000
      7      -7.7864      2.00000
      8      -7.7665      2.00000
      9      -7.6767      2.00000
     10      -7.6187      2.00000
     11      -1.7443      2.00000
     12       2.9391      2.00000
     13       4.3142      2.00000
     14      10.1835      0.00000
     15      12.5728      0.00000
     16      13.8868      0.00000
     17      15.4479      0.00000
     18      15.6206      0.00000
     19      16.4255      0.00000
     20      17.9826      0.00000

 k-point     4 :       0.2727    0.0000    0.0000
  band No.  band energies     occupation 
      1      -7.9736      2.00000
      2      -7.8683      2.00000
      3      -7.8670      2.00000
      4      -7.8362      2.00000
      5      -7.8096      2.00000
      6      -7.7266      2.00000
      7      -7.7199      2.00000
      8      -7.7155      2.00000
      9      -7.7012      2.00000
     10      -7.6131      2.00000
     11      -0.9778      2.00000
     12       3.5943      2.00000
     13       5.1296      2.00000
     14       7.7215      0.03779
     15      11.6086      0.00000
     16      11.8001      0.00000
     17      13.4356      0.00000
     18      14.6046      0.00000
     19      15.6386      0.00000
     20      17.4268      0.00000

 k-point     5 :       0.3636    0.0000    0.0000
  band No.  band energies     occupation 
      1      -8.0078      2.00000
      2      -7.9116      2.00000
      3      -7.8827      2.00000
      4      -7.8556      2.00000
      5      -7.7727      2.00000
      6      -7.7453      2.00000
      7      -7.6694      2.00000
      8      -7.6587      2.00000
      9      -7.6393      2.00000
     10      -7.6093      2.00000
     11       0.0969      2.00000
     12       4.3302      2.00000
     13       5.7152      2.00000
     14       6.1991      1.10034
     15       9.6541      0.00000
     16      10.9233      0.00000
     17      11.4751      0.00000
     18      14.0872      0.00000
     19      14.9675      0.00000
     20      16.8789      0.00000

 k-point     6 :       0.4545    0.0000    0.0000
  band No.  band energies     occupation 
      1      -8.0277      2.00000
      2      -7.9385      2.00000
      3      -7.8934      2.00000
      4      -7.8667      2.00000
      5      -7.7609      2.00000
      6      -7.7509      2.00000
      7      -7.6356      2.00000
      8      -7.6223      2.00000
      9      -7.6076      2.00000
     10      -7.6015      2.00000
     11       1.4297      2.00000
     12       3.2720      2.00000
     13       6.1244      2.00000
     14       7.3404      0.04246
     15       7.7551      0.00000
     16       9.8797      0.00000
     17      10.5685      0.00000
     18      13.8516      0.00000
     19      14.6038      0.00000
     20      16.5859      0.00000

 k-point     7 :       0.0909    0.0909    0.0000
  band No.  band energies     occupation 
      1      -7.9093      2.00000
      2      -7.8955      2.00000
      3      -7.8247      2.00000
      4      -7.8223      2.00000
      5      -7.8126      2.00000
      6      -7.8114      2.00000
      7      -7.7918      2.00000
      8      -7.7821      2.00000
      9      -7.6651      2.00000
     10      -7.6213      2.00000
     11      -1.8968      2.00000
     12       2.8078      2.00000
     13       4.1464      2.00000
     14      11.2625      0.00000
     15      11.9659      0.00000
     16      15.2798      0.00000
     17      15.8613      0.00000
     18      16.0180      0.00000
     19      16.8819      0.00000
     20      17.7030      0.00000

 k-point     8 :       0.1818    0.0909    0.0000
  band No.  band energies     occupation 
      1      -7.9360      2.00000
      2      -7.8782      2.00000
      3      -7.8501      2.00000
      4      -7.8310      2.00000
      5      -7.8207      2.00000
      6      -7.7763      2.00000
      7      -7.7325      2.00000
      8      -7.7202      2.00000
      9      -7.6995      2.00000
     10      -7.6175      2.00000
     11      -1.2850      2.00000
     12       3.3339      2.00000
     13       4.8090      2.00000
     14       8.9711      0.00000
     15      10.6584      0.00000
     16      13.3233      0.00000
     17      14.4220      0.00000
     18      14.9205      0.00000
     19      16.2280      0.00000
     20      16.6783      0.00000

 k-point     9 :       0.2727    0.0909    0.0000
  band No.  band energies     occupation 
      1      -7.9721      2.00000
      2      -7.8963      2.00000
      3      -7.8676      2.00000
      4      -7.8480      2.00000
      5      -7.7973      2.00000
      6      -7.7328      2.00000
      7      -7.7176      2.00000
      8      -7.6808      2.00000
      9      -7.6544      2.00000
     10      -7.6143      2.00000
     11      -0.3631      2.00000
     12       4.0909      2.00000
     13       5.7566      2.00000
     14       6.7086      0.22310
     15       9.7413      0.00000
     16      11.1382      0.00000
     17      12.4699      0.00000
     18      14.1577      0.00000
     19      15.6420      0.00000
     20      15.8939      0.00000

 k-point    10 :       0.3636    0.0909    0.0000
  band No.  band energies     occupation 
      1      -7.9990      2.00000
      2      -7.9334      2.00000
      3      -7.8735      2.00000
      4      -7.8587      2.00000
      5      -7.7639      2.00000
      6      -7.7568      2.00000
      7      -7.6712      2.00000
      8      -7.6367      2.00000
      9      -7.6135      2.00000
     10      -7.6125      2.00000
     11       0.8531      2.00000
     12       4.1285      2.00000
     13       5.7073      2.00000
     14       6.9075      0.13601
     15       8.5993      0.00000
     16       9.7216      0.00000
     17      10.6628      0.00000
     18      13.6618      0.00000
     19      15.2896      0.00000
     20      15.4538      0.00000

 k-point    11 :       0.4545    0.0909    0.0000
  band No.  band energies     occupation 
      1      -8.0088      2.00000
      2      -7.9474      2.00000
      3      -7.8771      2.00000
      4      -7.8622      2.00000
      5      -7.7657      2.00000
      6      -7.7498      2.00000
      7      -7.6552      2.00000
      8      -7.6119      2.00000
      9      -7.6117      2.00000
     10      -7.6062      2.00000
     11       2.0223      2.00000
     12       2.8413      2.00000
     13       6.7133      2.00000
     14       7.2296      0.00000
     15       7.7402      0.00000
     16       9.4220      0.00000
     17       9.6072      0.00000
     18      13.4907      0.00000
     19      15.1724      0.00000
     20      15.3091      0.00000

 k-point    12 :       0.1818    0.1818    0.0000
  band No.  band energies     occupation 
      1      -7.9085      2.00000
      2      -7.9044      2.00000
      3      -7.8902      2.00000
      4      -7.8457      2.00000
      5      -7.7878      2.00000
      6      -7.7604      2.00000
      7      -7.7253      2.00000
      8      -7.6973      2.00000
      9      -7.6544      2.00000
     10      -7.6190      2.00000
     11      -0.5170      2.00000
     12       3.9781      2.00000
     13       5.6064      2.00000
     14       7.7638      0.00082
     15       8.5875      0.00000
     16      12.2845      0.00000
     17      12.8662      0.00000
     18      13.1805      0.00000
     19      14.9963      0.00000
     20      17.9378      0.00000

 k-point    13 :       0.2727    0.1818    0.0000
  band No.  band energies     occupation 
      1      -7.9328      2.00000
      2      -7.9310      2.00000
      3      -7.8649      2.00000
      4      -7.8501      2.00000
      5      -7.7737      2.00000
      6      -7.7524      2.00000
      7      -7.7111      2.00000
      8      -7.6804      2.00000
      9      -7.6208      2.00000
     10      -7.6130      2.00000
     11       0.5520      2.00000
     12       4.6274      2.00000
     13       6.1749      2.00000
     14       6.6610      0.29138
     15       7.6620      0.00000
     16      10.3504      0.00000
     17      11.5920      0.00000
     18      12.0150      0.00000
     19      14.0648      0.00000
     20      17.8406      0.00000

 k-point    14 :       0.3636    0.1818    0.0000
  band No.  band energies     occupation 
      1      -7.9557      2.00000
      2      -7.9481      2.00000
      3      -7.8477      2.00000
      4      -7.8393      2.00000
      5      -7.7726      2.00000
      6      -7.7556      2.00000
      7      -7.6983      2.00000
      8      -7.6448      2.00000
      9      -7.6218      2.00000
     10      -7.6092      2.00000
     11       1.8638      2.00000
     12       3.6496      2.00000
     13       6.3580      2.00000
     14       7.4412      0.01821
     15       7.8171      0.00000
     16       8.5545      0.00000
     17      10.0773      0.00000
     18      11.6719      0.00000
     19      13.6861      0.00000
     20      17.6266      0.00000

 k-point    15 :       0.2727    0.2727    0.0000
  band No.  band energies     occupation 
      1      -7.9588      2.00000
      2      -7.8699      2.00000
      3      -7.8685      2.00000
      4      -7.8389      2.00000
      5      -7.7770      2.00000
      6      -7.7385      2.00000
      7      -7.7170      2.00000
      8      -7.6881      2.00000
      9      -7.6270      2.00000
     10      -7.6091      2.00000
     11       1.7372      2.00000
     12       4.4213      2.00000
     13       5.9588      2.00000
     14       6.7919      0.21974
     15       7.7849      0.00000
     16       9.6639      0.00000
     17      10.1739      0.00000
     18      10.5919      0.00000
     19      12.8295      0.00000
     20      20.2452      0.00000

 k-point    16 :       0.3636    0.2727    0.0000
  band No.  band energies     occupation 
      1      -7.9692      2.00000
      2      -7.8722      2.00000
      3      -7.8261      2.00000
      4      -7.8198      2.00000
      5      -7.7946      2.00000
      6      -7.7543      2.00000
      7      -7.7280      2.00000
      8      -7.6533      2.00000
      9      -7.6325      2.00000
     10      -7.6294      2.00000
     11       2.8626      2.00000
     12       3.4896      2.00000
     13       5.4529      2.00000
     14       8.0449      0.00765
     15       8.1990      0.00000
     16       8.7250      0.00000
     17       9.6667      0.00000
     18       9.8012      0.00000
     19      12.4421      0.00000
     20      20.3144      0.00000

 k-point    17 :       0.0000    0.0000    0.0909
  band No.  band energies     occupation 
      1      -7.9199      2.00000
      2      -7.8769      2.00000
      3      -7.8594      2.00000
      4      -7.8594      2.00000
      5      -7.8350      2.00000
      6      -7.8350      2.00000
      7      -7.7796      2.00000
      8      -7.7796      2.00000
      9      -7.6289      2.00000
     10      -7.6289      2.00000
     11      -2.3087      2.00000
     12       1.9179      2.00000
     13       4.2172      2.00000
     14      14.4903      0.00000
     15      14.4903      0.00000
     16      16.0660      0.00000
     17      16.1882      0.00000
     18      16.1882      0.00000
     19      17.3386      0.00000
     20      17.5152      0.00000

 k-point    18 :       0.0909    0.0000    0.0909
  band No.  band energies     occupation 
      1      -7.9149      2.00000
      2      -7.8818      2.00000
      3      -7.8491      2.00000
      4      -7.8422      2.00000
      5      -7.8324      2.00000
      6      -7.8171      2.00000
      7      -7.7865      2.00000
      8      -7.7854      2.00000
      9      -7.6430      2.00000
     10      -7.6265      2.00000
     11      -2.1576      2.00000
     12       2.0592      2.00000
     13       4.3776      2.00000
     14      12.8033      0.00000
     15      13.7433      0.00000
     16      15.3186      0.00000
     17      16.0258      0.00000
     18      16.5653      0.00000
     19      17.1289      0.00000
     20      18.1713      0.00000

 k-point    19 :       0.1818    0.0000    0.0909
  band No.  band energies     occupation 
      1      -7.9348      2.00000
      2      -7.8666      2.00000
      3      -7.8480      2.00000
      4      -7.8236      2.00000
      5      -7.8172      2.00000
      6      -7.7802      2.00000
      7      -7.7783      2.00000
      8      -7.7686      2.00000
      9      -7.6767      2.00000
     10      -7.6210      2.00000
     11      -1.7013      2.00000
     12       2.4827      2.00000
     13       4.8519      2.00000
     14      10.2273      0.00000
     15      12.6187      0.00000
     16      13.6925      0.00000
     17      15.1205      0.00000
     18      15.9077      0.00000
     19      16.2358      0.00000
     20      17.7063      0.00000

 k-point    20 :       0.2727    0.0000    0.0909
  band No.  band energies     occupation 
      1      -7.9719      2.00000
      2      -7.8774      2.00000
      3      -7.8674      2.00000
      4      -7.8332      2.00000
      5      -7.8019      2.00000
      6      -7.7423      2.00000
      7      -7.7182      2.00000
      8      -7.7034      2.00000
      9      -7.6992      2.00000
     10      -7.6157      2.00000
     11      -0.9345      2.00000
     12       3.1836      2.00000
     13       5.6067      2.00000
     14       7.7786      0.01420
     15      11.4889      0.00000
     16      11.6568      0.00000
     17      13.6727      0.00000
     18      14.7045      0.00000
     19      15.4402      0.00000
     20      17.1649      0.00000

 k-point    21 :       0.3636    0.0000    0.0909
  band No.  band energies     occupation 
      1      -8.0054      2.00000
      2      -7.9172      2.00000
      3      -7.8834      2.00000
      4      -7.8513      2.00000
      5      -7.7687      2.00000
      6      -7.7551      2.00000
      7      -7.6593      2.00000
      8      -7.6586      2.00000
      9      -7.6419      2.00000
     10      -7.6114      2.00000
     11       0.1401      2.00000
     12       4.0615      2.00000
     13       5.5340      2.00000
     14       6.7649      0.17635
     15       9.3363      0.00000
     16      10.9729      0.00000
     17      11.8311      0.00000
     18      14.1290      0.00000
     19      14.7777      0.00000
     20      16.6634      0.00000

 k-point    22 :       0.4545    0.0000    0.0909
  band No.  band energies     occupation 
      1      -8.0248      2.00000
      2      -7.9434      2.00000
      3      -7.8937      2.00000
      4      -7.8618      2.00000
      5      -7.7749      2.00000
      6      -7.7422      2.00000
      7      -7.6276      2.00000
      8      -7.6252      2.00000
      9      -7.6105      2.00000
     10      -7.6010      2.00000
     11       1.4720      2.00000
     12       3.3110      2.00000
     13       5.6816      2.00000
     14       7.3414      0.03764
     15       7.9793      0.00000
     16      10.2336      0.00000
     17      10.6186      0.00000
     18      13.8850      0.00000
     19      14.4199      0.00000
     20      16.3894      0.00000

 k-point    23 :       0.0909    0.0909    0.0909
  band No.  band energies     occupation 
      1      -7.9094      2.00000
      2      -7.8939      2.00000
      3      -7.8394      2.00000
      4      -7.8264      2.00000
      5      -7.8158      2.00000
      6      -7.7982      2.00000
      7      -7.7844      2.00000
      8      -7.7785      2.00000
      9      -7.6655      2.00000
     10      -7.6237      2.00000
     11      -1.8538      2.00000
     12       2.3416      2.00000
     13       4.6952      2.00000
     14      11.3051      0.00000
     15      12.0057      0.00000
     16      14.9730      0.00000
     17      15.6436      0.00000
     18      15.8353      0.00000
     19      16.9012      0.00000
     20      17.5426      0.00000

 k-point    24 :       0.1818    0.0909    0.0909
  band No.  band energies     occupation 
      1      -7.9351      2.00000
      2      -7.8807      2.00000
      3      -7.8514      2.00000
      4      -7.8346      2.00000
      5      -7.8173      2.00000
      6      -7.7709      2.00000
      7      -7.7322      2.00000
      8      -7.7277      2.00000
      9      -7.6912      2.00000
     10      -7.6205      2.00000
     11      -1.2418      2.00000
     12       2.9049      2.00000
     13       5.3145      1.99998
     14       9.0185      0.00000
[...]
      5      -7.8549      2.00000
      6      -7.8486      2.00000
      7      -7.6994      2.00000
      8      -7.6946      2.00000
      9      -7.6812      2.00000
     10      -7.6735      2.00000
     11      -1.1204      2.00000
     12      -0.6409      2.00000
     13       9.0782      0.00000
     14      10.4555      0.00000
     15      13.7380      0.00000
     16      14.1336      0.00000
     17      14.6905      0.00000
     18      15.0867      0.00000
     19      16.6692      0.00000
     20      16.9265      0.00000

 k-point    83 :       0.1818    0.0000    0.4545
  band No.  band energies     occupation 
      1      -7.9155      2.00000
      2      -7.9058      2.00000
      3      -7.8551      2.00000
      4      -7.8462      2.00000
      5      -7.8138      2.00000
      6      -7.8045      2.00000
      7      -7.7052      2.00000
      8      -7.6947      2.00000
      9      -7.6926      2.00000
     10      -7.6734      2.00000
     11      -0.6608      2.00000
     12      -0.1820      2.00000
     13       9.4127      0.00000
     14      10.6690      0.00000
     15      11.3114      0.00000
     16      11.8216      0.00000
     17      13.6844      0.00000
     18      14.1474      0.00000
     19      15.7957      0.00000
     20      16.1237      0.00000

 k-point    84 :       0.2727    0.0000    0.4545
  band No.  band energies     occupation 
      1      -7.9411      2.00000
      2      -7.9274      2.00000
      3      -7.8701      2.00000
      4      -7.8529      2.00000
      5      -7.7748      2.00000
      6      -7.7554      2.00000
      7      -7.6875      2.00000
      8      -7.6788      2.00000
      9      -7.6742      2.00000
     10      -7.6640      2.00000
     11       0.1067      2.00000
     12       0.5832      2.00000
     13       8.5472      0.01097
     14       9.0368      0.00000
     15      10.3860      0.00000
     16      11.6157      0.00000
     17      12.7748      0.00000
     18      13.2592      0.00000
     19      15.1570      0.00000
     20      15.4954      0.00000

 k-point    85 :       0.3636    0.0000    0.4545
  band No.  band energies     occupation 
      1      -7.9611      2.00000
      2      -7.9445      2.00000
      3      -7.9046      2.00000
      4      -7.8839      2.00000
      5      -7.7623      2.00000
      6      -7.7311      2.00000
      7      -7.6534      2.00000
      8      -7.6395      2.00000
      9      -7.6361      2.00000
     10      -7.6340      2.00000
     11       1.1756      2.00000
     12       1.6461      2.00000
     13       6.3961      1.33955
     14       6.8598      0.75170
     15      11.1604      0.00000
     16      12.1155      0.00000
     17      12.2800      0.00000
     18      12.6074      0.00000
     19      14.7760      0.00000
     20      15.1205      0.00000

 k-point    86 :       0.4545    0.0000    0.4545
  band No.  band energies     occupation 
      1      -7.9685      2.00000
      2      -7.9527      2.00000
      3      -7.9302      2.00000
      4      -7.9112      2.00000
      5      -7.7618      2.00000
      6      -7.7262      2.00000
      7      -7.6295      2.00000
      8      -7.6100      2.00000
      9      -7.6085      2.00000
     10      -7.6063      2.00000
     11       2.4782      2.00000
     12       2.9198      2.00000
     13       4.5353      2.00000
     14       4.9832      1.99344
     15      11.7715      0.00000
     16      12.0157      0.00000
     17      12.2658      0.00000
     18      12.6833      0.00000
     19      14.6993      0.00000
     20      15.0145      0.00000

 k-point    87 :       0.0909    0.0909    0.4545
  band No.  band energies     occupation 
      1      -7.9028      2.00000
      2      -7.8970      2.00000
      3      -7.8639      2.00000
      4      -7.8551      2.00000
      5      -7.8226      2.00000
      6      -7.8182      2.00000
      7      -7.7062      2.00000
      8      -7.7045      2.00000
      9      -7.6816      2.00000
     10      -7.6744      2.00000
     11      -0.8141      2.00000
     12      -0.3350      2.00000
     13       9.3202      0.00000
     14      10.6602      0.00000
     15      12.2699      0.00000
     16      12.5682      0.00000
     17      13.3447      0.00000
     18      13.6075      0.00000
     19      17.0293      0.00000
     20      17.1895      0.00000

 k-point    88 :       0.1818    0.0909    0.4545
  band No.  band energies     occupation 
      1      -7.9207      2.00000
      2      -7.9118      2.00000
      3      -7.8595      2.00000
      4      -7.8461      2.00000
      5      -7.7880      2.00000
      6      -7.7798      2.00000
      7      -7.7212      2.00000
      8      -7.7037      2.00000
      9      -7.6650      2.00000
     10      -7.6601      2.00000
     11      -0.2003      2.00000
     12       0.2773      2.00000
     13       9.4416      0.00000
     14      10.1393      0.00000
     15      10.4239      0.00000
     16      11.2892      0.00000
     17      12.1126      0.00000
     18      12.4569      0.00000
     19      16.8281      0.00000
     20      17.1319      0.00000

 k-point    89 :       0.2727    0.0909    0.4545
  band No.  band energies     occupation 
      1      -7.9417      2.00000
      2      -7.9288      2.00000
      3      -7.8794      2.00000
      4      -7.8615      2.00000
      5      -7.7693      2.00000
      6      -7.7440      2.00000
      7      -7.7037      2.00000
      8      -7.6886      2.00000
      9      -7.6349      2.00000
     10      -7.6267      2.00000
     11       0.7193      2.00000
     12       1.1929      2.00000
     13       7.5393      0.33049
     14       8.0032      0.05245
     15      10.5714      0.00000
     16      11.1009      0.00000
     17      11.6124      0.00000
     18      12.3397      0.00000
     19      16.3351      0.00000
     20      16.6652      0.00000

 k-point    90 :       0.3636    0.0909    0.4545
  band No.  band energies     occupation 
      1      -7.9532      2.00000
      2      -7.9399      2.00000
      3      -7.9075      2.00000
      4      -7.8907      2.00000
      5      -7.7697      2.00000
      6      -7.7346      2.00000
      7      -7.6588      2.00000
      8      -7.6465      2.00000
      9      -7.6141      2.00000
     10      -7.6040      2.00000
     11       1.9223      2.00000
     12       2.3843      2.00000
     13       5.5088      1.93038
     14       5.9673      1.60794
     15      10.4317      0.00000
     16      10.8932      0.00000
     17      12.0002      0.00000
     18      12.9369      0.00000
     19      15.9836      0.00000
     20      16.3344      0.00000

 k-point    91 :       0.4545    0.0909    0.4545
  band No.  band energies     occupation 
      1      -7.9528      2.00000
      2      -7.9465      2.00000
      3      -7.9164      2.00000
      4      -7.9078      2.00000
      5      -7.7713      2.00000
      6      -7.7342      2.00000
      7      -7.6302      2.00000
      8      -7.6199      2.00000
      9      -7.6115      2.00000
     10      -7.6058      2.00000
     11       3.0188      2.00000
     12       3.3767      2.00000
     13       4.2180      2.00000
     14       4.5963      2.00000
     15      10.2975      0.00000
     16      10.7659      0.00000
     17      12.6238      0.00000
     18      13.0822      0.00000
     19      15.9011      0.00000
     20      16.0055      0.00000

 k-point    92 :       0.1818    0.1818    0.4545
  band No.  band energies     occupation 
      1      -7.9235      2.00000
      2      -7.9172      2.00000
      3      -7.8587      2.00000
      4      -7.8414      2.00000
      5      -7.7749      2.00000
      6      -7.7615      2.00000
      7      -7.7410      2.00000
      8      -7.7179      2.00000
      9      -7.6303      2.00000
     10      -7.6236      2.00000
     11       0.5664      2.00000
     12       1.0409      2.00000
     13       8.4865      0.00688
     14       8.8999      0.00000
     15       9.8531      0.00000
     16      10.0301      0.00000
     17      11.1479      0.00000
     18      12.2075      0.00000
     19      18.1411      0.00000
     20      18.2677      0.00000

 k-point    93 :       0.2727    0.1818    0.4545
  band No.  band energies     occupation 
      1      -7.9306      2.00000
      2      -7.9232      2.00000
      3      -7.8622      2.00000
      4      -7.8472      2.00000
      5      -7.7827      2.00000
      6      -7.7480      2.00000
      7      -7.7180      2.00000
      8      -7.7071      2.00000
      9      -7.6109      2.00000
     10      -7.6004      2.00000
     11       1.6275      2.00000
     12       2.0941      2.00000
     13       6.7177      1.27863
     14       7.1537      0.53634
     15       8.8367      0.00000
     16       9.2496      0.00000
     17      11.8067      0.00000
     18      12.9154      0.00000
     19      17.2554      0.00000
     20      17.8572      0.00000

 k-point    94 :       0.3636    0.1818    0.4545
  band No.  band energies     occupation 
      1      -7.9328      2.00000
      2      -7.9265      2.00000
      3      -7.8703      2.00000
      4      -7.8626      2.00000
      5      -7.7910      2.00000
      6      -7.7523      2.00000
      7      -7.6738      2.00000
      8      -7.6658      2.00000
      9      -7.6155      2.00000
     10      -7.6042      2.00000
     11       2.9010      2.00000
     12       3.3250      2.00000
     13       4.9861      2.00000
     14       5.4130      1.96895
     15       8.4363      0.00107
     16       8.8889      0.00000
     17      12.7326      0.00000
     18      13.4182      0.00000
     19      16.2567      0.00000
     20      16.9204      0.00000

 k-point    95 :       0.2727    0.2727    0.4545
  band No.  band energies     occupation 
      1      -7.9218      2.00000
      2      -7.9196      2.00000
      3      -7.8254      2.00000
      4      -7.8239      2.00000
      5      -7.7938      2.00000
      6      -7.7616      2.00000
      7      -7.7188      2.00000
      8      -7.7132      2.00000
      9      -7.6141      2.00000
     10      -7.6030      2.00000
     11       2.7876      2.00000
     12       3.2280      2.00000
     13       5.9333      2.00000
     14       6.3034      1.74366
     15       7.2529      0.03384
     16       7.6321      0.00000
     17      12.7126      0.00000
     18      13.5683      0.00000
     19      16.8477      0.00000
     20      17.0287      0.00000

 k-point    96 :       0.3636    0.2727    0.4545
  band No.  band energies     occupation 
      1      -7.9186      2.00000
      2      -7.9158      2.00000
      3      -7.8314      2.00000
      4      -7.8073      2.00000
      5      -7.7815      2.00000
      6      -7.7667      2.00000
      7      -7.7133      2.00000
      8      -7.7108      2.00000
      9      -7.6213      2.00000
     10      -7.6159      2.00000
     11       3.7815      2.00000
     12       4.0125      2.00000
     13       5.1765      2.00000
     14       5.4316      2.00000
     15       6.7116      0.53987
     16       7.1563      0.00000
     17      13.4147      0.00000
     18      13.7001      0.00000
     19      16.2826      0.00000
     20      17.0707      0.00000


--------------------------------------------------------------------------------------------------------


 soft charge-density along one line, spin component           1
         0         1         2         3         4         5         6         7         8         9
 total charge-density along one line
 
 pseudopotential strength for first ion, spin component:           1
-10.810   0.000   0.000  -0.000  -0.000   1.716  -0.000  -0.000
  0.000 -10.809  -0.000  -0.000   0.000  -0.000   1.716   0.000
  0.000  -0.000 -10.809   0.000  -0.000  -0.000   0.000   1.716
 -0.000  -0.000   0.000 -10.809   0.000   0.000   0.000  -0.000
 -0.000   0.000  -0.000   0.000 -10.810   0.000  -0.000   0.000
  1.716  -0.000  -0.000   0.000   0.000   5.670   0.000   0.000
 -0.000   1.716   0.000   0.000  -0.000   0.000   5.670  -0.000
 -0.000   0.000   1.716  -0.000   0.000   0.000  -0.000   5.670
  0.000   0.000  -0.000   1.716  -0.000  -0.000  -0.000   0.000
  0.000  -0.000   0.000  -0.000   1.716  -0.000   0.000  -0.000
  0.000   0.000   0.000  -0.000  -0.000   0.000   0.000  -0.000
  0.000   0.000   0.000  -0.000  -0.000   0.000   0.000  -0.000
  0.000  -0.000   0.000   0.000  -0.000   0.000   0.000   0.000
  0.000  -0.000  -0.000   0.000  -0.000   0.000  -0.000  -0.000
 -0.000   0.000  -0.000  -0.000   0.000   0.000   0.000  -0.000
  0.000  -0.000   0.000   0.000  -0.000   0.000   0.000   0.000
  0.000  -0.000  -0.000   0.000  -0.000   0.000  -0.000  -0.000
 -0.000   0.000  -0.000  -0.000   0.000   0.000   0.000  -0.000
 total augmentation occupancy for first ion, spin component:           1
  1.998   0.000  -0.000   0.000   0.000   0.002   0.000  -0.000   0.000  -0.000  -0.000  -0.000   0.000   0.000   0.003  -0.000
  0.000   1.998   0.000   0.000   0.000   0.000   0.002  -0.000  -0.000  -0.000  -0.000  -0.000  -0.000   0.000   0.000  -0.000
 -0.000   0.000   1.998   0.000  -0.000  -0.000  -0.000   0.002   0.000  -0.000   0.002  -0.002  -0.000  -0.000  -0.000   0.000
 -0.000   0.000   0.000   1.998   0.000   0.000  -0.000   0.000   0.002   0.000  -0.000   0.000  -0.000   0.000  -0.000  -0.000
  0.000   0.000  -0.000  -0.000   1.998  -0.000  -0.000  -0.000  -0.000   0.002  -0.000   0.000   0.003   0.000   0.000  -0.002
  0.002  -0.000  -0.000  -0.000  -0.000   0.010   0.000  -0.000   0.000   0.000   0.000   0.000   0.000   0.000   0.011   0.000
  0.000   0.002   0.000  -0.000  -0.000  -0.000   0.009  -0.000   0.000  -0.000   0.000   0.000  -0.000  -0.000  -0.000   0.000
  0.000  -0.000   0.002   0.000  -0.000  -0.000   0.000   0.011   0.000  -0.000  -0.000   0.000  -0.000  -0.000  -0.000   0.000
 -0.000  -0.000  -0.000   0.002   0.000   0.000   0.000  -0.000   0.009   0.000   0.000   0.000  -0.000  -0.000  -0.000  -0.000
 -0.000   0.000  -0.000   0.000   0.002   0.000  -0.000  -0.000  -0.000   0.010   0.000  -0.000   0.011  -0.000   0.000  -0.003
  0.000  -0.000   0.002   0.000  -0.000   0.000   0.000  -0.000  -0.000   0.000   4.096  -1.661  -0.000   0.000   0.000  -0.000
 -0.000  -0.000  -0.002   0.000   0.000   0.000   0.000   0.000   0.000  -0.000  -1.661   1.180  -0.000  -0.000   0.000   0.000
  0.000   0.000  -0.000   0.000   0.003  -0.000  -0.000  -0.000  -0.000   0.011   0.000  -0.000   1.388  -0.000  -0.000  -0.281
  0.000  -0.000  -0.000   0.000  -0.000   0.000   0.000  -0.000   0.000  -0.000  -0.000   0.000  -0.000   1.396   0.000  -0.000
  0.003   0.000  -0.000  -0.000   0.000   0.011  -0.000  -0.000   0.000   0.000   0.000   0.000   0.000  -0.000   1.388   0.000
 -0.000   0.000   0.000   0.000  -0.002  -0.000  -0.000   0.000   0.000  -0.003   0.000   0.000  -0.281   0.000  -0.000   0.062
  0.000   0.000  -0.000   0.000  -0.000   0.000  -0.000  -0.000  -0.000   0.000   0.000   0.000   0.000  -0.283   0.000   0.000
 -0.002   0.000   0.000  -0.000  -0.000  -0.003  -0.000   0.000   0.000  -0.000   0.000   0.000  -0.000  -0.000  -0.281  -0.000


------------------------ aborting loop because EDIFF is reached ----------------------------------------


 


 total charge     
 
# of ion     s       p       d       tot
----------------------------------------
  1        1.020   0.442   9.845  11.306
  2        1.020   0.442   9.845  11.306
------------------------------------------------
tot        2.039   0.884  19.690  22.613
 
    CHARGE:  cpu time    0.08: real time    0.08
    FORLOC:  cpu time    0.00: real time    0.00
    FORNL :  cpu time    0.13: real time    0.13
    FORCOR:  cpu time    0.03: real time    0.03
    FORHAR:  cpu time    0.00: real time    0.01
    MIXING:  cpu time    0.00: real time    0.00
    OFIELD:  cpu time    0.00: real time    0.00

 VOLUME and BASIS-vectors are now :
 -----------------------------------------------------------------------------
  energy-cutoff  :      600.00
  volume of cell :       56.56
      direct lattice vectors                 reciprocal lattice vectors
     3.422518000  0.000000000  0.000000000     0.292182539  0.168691698  0.000000000
    -1.711259000  2.963987000  0.000000000     0.000000000  0.337383396  0.000000000
     0.000000000  0.000000000  5.576016000     0.000000000  0.000000000  0.179339514

  length of vectors
     3.422518000  3.422517538  5.576016000     0.337383351  0.337383396  0.179339514


 FORCES acting on ions
    electron-ion (+dipol)            ewald-force                    non-local-force                 convergence-correction
 -----------------------------------------------------------------------------------------------
   -.892E-03 0.504E-03 0.643E-05   -.854E-04 0.624E-04 0.267E-13   0.208E-16 -.486E-16 -.173E-16   0.342E-05 -.201E-05 -.717E-08
   0.381E-03 -.209E-03 0.643E-05   0.854E-04 -.624E-04 -.267E-13   0.104E-16 0.486E-16 -.729E-16   -.211E-05 0.125E-05 -.716E-08
 -----------------------------------------------------------------------------------------------
   -.511E-03 0.295E-03 0.129E-04   0.167E-13 -.197E-14 0.000E+00   0.312E-16 0.000E+00 -.902E-16   0.131E-05 -.759E-06 -.143E-07
 
 
 POSITION                                       TOTAL-FORCE (eV/Angst)
 -----------------------------------------------------------------------------------
      1.71126      0.98799      4.18201        -0.000000      0.000000      0.000000
     -0.00000      1.97599      1.39400         0.000000     -0.000000      0.000000
 -----------------------------------------------------------------------------------
    total drift:                               -0.000510      0.000294      0.000013


--------------------------------------------------------------------------------------------------------



  FREE ENERGIE OF THE ION-ELECTRON SYSTEM (eV)
  ---------------------------------------------------
  free  energy   TOTEN  =        -4.99713770 eV

  energy  without entropy=       -4.99713770  energy(sigma->0) =       -4.99713770
 


--------------------------------------------------------------------------------------------------------


    POTLOK:  cpu time    0.03: real time    0.03


--------------------------------------------------------------------------------------------------------


 writing wavefunctions
     LOOP+:  cpu time   29.19: real time   37.74
    4ORBIT:  cpu time    0.00: real time    0.00
 


 total charge     
 
# of ion     s       p       d       tot
----------------------------------------
  1        1.020   0.442   9.845  11.306
  2        1.020   0.442   9.845  11.306
------------------------------------------------
tot        2.039   0.884  19.690  22.613
 
 BZINTS: Fermi energy:  6.735531; 26.000000 electrons
         Band energy:-137.554022;  BLOECHL correction:  0.000000

 total amount of memory used by VASP on root node    36594. kBytes
========================================================================

   base      :      30000. kBytes
   nonl-proj :       3325. kBytes
   fftplans  :        518. kBytes
   grid      :        740. kBytes
   one-center:         15. kBytes
   wavefun   :       1996. kBytes
 
  
  
 General timing and accounting informations for this job:
 ========================================================
  
                  Total CPU time used (sec):       35.122
                            User time (sec):       32.446
                          System time (sec):        2.676
                         Elapsed time (sec):      258.493
  
                   Maximum memory used (kb):       68432.
                   Average memory used (kb):           0.
  
                          Minor page faults:        12373
                          Major page faults:            0
                 Voluntary context switches:       187689
