 vasp.5.3.5 31Mar14 (build Feb 04 2015 11:56:40) complex                        
  
 executed on             LinuxIFC date 2016.03.23  19:32:22
 running on    8 total cores
 distrk:  each k-point on    8 cores,    1 groups
 distr:  one band on NCORES_PER_BAND=   2 cores,    4 groups


--------------------------------------------------------------------------------------------------------


 INCAR:
 POTCAR:    PAW_PBE Cd 06Sep2000                  
 POTCAR:    PAW_PBE In_d 06Sep2000                
 POTCAR:    PAW_PBE S 06Sep2000                   
 POTCAR:    PAW_PBE Cd 06Sep2000                  
   VRHFIN =Cd : s2 d10                                                          
   LEXCH  = PE                                                                  
   EATOM  =  1293.1815 eV,   95.0462 Ry                                         
                                                                                
   TITEL  = PAW_PBE Cd 06Sep2000                                                
   LULTRA =        F    use ultrasoft PP ?                                      
   IUNSCR =        1    unscreen: 0-lin 1-nonlin 2-no                           
   RPACOR =    2.000    partial core radius                                     
   POMASS =  112.411; ZVAL   =   12.000    mass and valenz                      
   RCORE  =    2.300    outmost cutoff radius                                   
   RWIGS  =    2.980; RWIGS  =    1.577    wigner-seitz radius (au A)           
   ENMAX  =  274.336; ENMIN  =  205.752 eV                                      
   RCLOC  =    2.054    cutoff for local pot                                    
   LCOR   =        T    correct aug charges                                     
   LPAW   =        T    paw PP                                                  
   EAUG   =  456.106                                                            
   DEXC   =    0.000                                                            
   RMAX   =    2.358    core radius for proj-oper                               
   RAUG   =    1.300    factor for augmentation sphere                          
   RDEP   =    2.450    radius for radial grids                                 
   RDEPT  =    1.955    core radius for aug-charge                              
                                                                                
   Atomic configuration                                                         
   12 entries                                                                   
     n  l   j            E        occ.                                          
     1  0  0.50    -26519.7817   2.0000                                         
     2  0  0.50     -3936.9612   2.0000                                         
     2  1  1.50     -3532.2230   6.0000                                         
     3  0  0.50      -733.7908   2.0000                                         
     3  1  1.50      -601.0792   6.0000                                         
     3  2  2.50      -393.5307  10.0000                                         
     4  0  0.50      -105.8977   2.0000                                         
     4  1  1.50       -66.9488   6.0000                                         
     4  2  2.50       -11.7331  10.0000                                         
     5  0  0.50        -5.6592   2.0000                                         
     5  1  0.50        -1.3606   0.0000                                         
     4  3  2.50        -1.3606   0.0000                                         
   Description                                                                  
     l       E           TYP  RCUT    TYP  RCUT                                 
     2    -11.7331479     23  2.300                                             
     2    -13.0937305     23  2.300                                             
     0     -5.6591502     23  2.300                                             
     0     -1.5561433     23  2.300                                             
     1     -2.7211652     23  2.300                                             
     1      8.3548275     23  2.300                                             
  local pseudopotential read in
  partial core-charges read in
  partial kinetic energy density read in
  atomic valenz-charges read in
  non local Contribution for L=           2  read in
    real space projection operators read in
  non local Contribution for L=           2  read in
    real space projection operators read in
  non local Contribution for L=           0  read in
    real space projection operators read in
  non local Contribution for L=           0  read in
    real space projection operators read in
  non local Contribution for L=           1  read in
    real space projection operators read in
  non local Contribution for L=           1  read in
    real space projection operators read in
    PAW grid and wavefunctions read in
 
   number of l-projection  operators is LMAX  =           6
   number of lm-projection operators is LMMAX =          18
 
 POTCAR:    PAW_PBE In_d 06Sep2000                
   VRHFIN =In: s2p1                                                             
   LEXCH  = PE                                                                  
   EATOM  =  1576.8302 eV,  115.8937 Ry                                         
                                                                                
   TITEL  = PAW_PBE In_d 06Sep2000                                              
   LULTRA =        F    use ultrasoft PP ?                                      
   IUNSCR =        1    unscreen: 0-lin 1-nonlin 2-no                           
   RPACOR =    2.200    partial core radius                                     
   POMASS =  114.820; ZVAL   =   13.000    mass and valenz                      
   RCORE  =    2.500    outmost cutoff radius                                   
   RWIGS  =    3.170; RWIGS  =    1.677    wigner-seitz radius (au A)           
   ENMAX  =  239.211; ENMIN  =  179.409 eV                                      
   ICORE  =        3    local potential                                         
   LCOR   =        T    correct aug charges                                     
   LPAW   =        T    paw PP                                                  
   EAUG   =  449.704                                                            
   DEXC   =    0.000                                                            
   RMAX   =    2.552    core radius for proj-oper                               
   RAUG   =    1.300    factor for augmentation sphere                          
   RDEP   =    2.630    radius for radial grids                                 
   RDEPT  =    2.033    core radius for aug-charge                              
                                                                                
   Atomic configuration                                                         
   12 entries                                                                   
     n  l   j            E        occ.                                          
     1  0  0.50    -27747.9169   2.0000                                         
     2  0  0.50     -4154.4438   2.0000                                         
     2  1  1.50     -3728.4305   6.0000                                         
     3  0  0.50      -788.3680   2.0000                                         
     3  1  1.50      -648.9215   6.0000                                         
     3  2  2.50      -432.5893  10.0000                                         
     4  0  0.50      -119.6363   2.0000                                         
     4  1  1.50       -78.1086   6.0000                                         
     4  2  2.50       -18.6227  10.0000                                         
     5  0  0.50        -8.2107   2.0000                                         
     5  1  0.50        -2.5185   1.0000                                         
     4  3  2.50        -2.7212   0.0000                                         
   Description                                                                  
     l       E           TYP  RCUT    TYP  RCUT                                 
     2    -18.6226981     23  2.500                                             
     2     -1.3605826     23  2.500                                             
     0     -8.2107305     23  2.500                                             
     0     -6.1485975     23  2.500                                             
     1     -2.5184867     23  2.500                                             
     1      3.2427302     23  2.500                                             
     3     -1.3605826      7  2.500                                             
  local pseudopotential read in
  partial core-charges read in
  partial kinetic energy density read in
  atomic valenz-charges read in
  non local Contribution for L=           2  read in
    real space projection operators read in
  non local Contribution for L=           2  read in
    real space projection operators read in
  non local Contribution for L=           0  read in
    real space projection operators read in
  non local Contribution for L=           0  read in
    real space projection operators read in
  non local Contribution for L=           1  read in
    real space projection operators read in
  non local Contribution for L=           1  read in
    real space projection operators read in
    PAW grid and wavefunctions read in
 
   number of l-projection  operators is LMAX  =           6
   number of lm-projection operators is LMMAX =          18
 
 POTCAR:    PAW_PBE S 06Sep2000                   
   VRHFIN =S : s2p4                                                             
   LEXCH  = PE                                                                  
   EATOM  =   276.8230 eV,   20.3459 Ry                                         
                                                                                
   TITEL  = PAW_PBE S 06Sep2000                                                 
   LULTRA =        F    use ultrasoft PP ?                                      
   IUNSCR =        1    unscreen: 0-lin 1-nonlin 2-no                           
   RPACOR =    1.500    partial core radius                                     
   POMASS =   32.066; ZVAL   =    6.000    mass and valenz                      
   RCORE  =    1.900    outmost cutoff radius                                   
   RWIGS  =    2.200; RWIGS  =    1.164    wigner-seitz radius (au A)           
   ENMAX  =  258.689; ENMIN  =  194.016 eV                                      
   ICORE  =        2    local potential                                         
   LCOR   =        T    correct aug charges                                     
   LPAW   =        T    paw PP                                                  
   EAUG   =  335.092                                                            
   DEXC   =    0.000                                                            
   RMAX   =    1.942    core radius for proj-oper                               
   RAUG   =    1.300    factor for augmentation sphere                          
   RDEP   =    1.954    radius for radial grids                                 
   RDEPT  =    1.744    core radius for aug-charge                              
                                                                                
   Atomic configuration                                                         
    6 entries                                                                   
     n  l   j            E        occ.                                          
     1  0  0.50     -2405.8406   2.0000                                         
     2  0  0.50      -211.7007   2.0000                                         
     2  1  1.50      -156.4958   6.0000                                         
     3  0  0.50       -17.2562   2.0000                                         
     3  1  0.50        -7.0085   4.0000                                         
     3  2  1.50        -6.8029   0.0000                                         
   Description                                                                  
     l       E           TYP  RCUT    TYP  RCUT                                 
     0    -17.2561641     23  1.900                                             
     0    -15.8743224     23  1.900                                             
     1     -7.0085400     23  1.900                                             
     1     -2.7779785     23  1.900                                             
     2     -6.8029130     23  1.900                                             
  local pseudopotential read in
  partial core-charges read in
  partial kinetic energy density read in
  atomic valenz-charges read in
  non local Contribution for L=           0  read in
    real space projection operators read in
  non local Contribution for L=           0  read in
    real space projection operators read in
  non local Contribution for L=           1  read in
    real space projection operators read in
  non local Contribution for L=           1  read in
    real space projection operators read in
    PAW grid and wavefunctions read in
 
   number of l-projection  operators is LMAX  =           4
   number of lm-projection operators is LMMAX =           8
 

 ----------------------------------------------------------------------------- 
|                                                                             |
|  ADVICE TO THIS USER RUNNING 'VASP/VAMP'   (HEAR YOUR MASTER'S VOICE ...):  |
|                                                                             |
|      You have a (more or less) 'large supercell' and for larger cells       |
|      it might be more efficient to use real space projection opertators     |
|      So try LREAL= Auto  in the INCAR   file.                               |
|      Mind: At the moment your POTCAR file does not contain real space       |
|       projectors, and has to be modified,  BUT if you                       |
|      want to do an extremely  accurate calculation you might also keep the  |
|      reciprocal projection scheme          (i.e. LREAL=.FALSE.)             |
|                                                                             |
 ----------------------------------------------------------------------------- 

  PAW_PBE Cd 06Sep2000                  :
 energy of atom  1       EATOM=-1293.1815
 kinetic energy error for atom=    0.0041 (will be added to EATOM!!)
  PAW_PBE In_d 06Sep2000                :
 energy of atom  2       EATOM=-1576.8302
 kinetic energy error for atom=    0.0011 (will be added to EATOM!!)
  PAW_PBE S 06Sep2000                   :
 energy of atom  3       EATOM= -276.8230
 kinetic energy error for atom=    0.0009 (will be added to EATOM!!)
 
 
 POSCAR: Cd In2 S4                               
  positions in direct lattice
  velocities in cartesian coordinates
 exchange correlation table for  LEXCH =        8
   RHO(1)=    0.500       N(1)  =     2000
   RHO(2)=  100.500       N(2)  =     4000
 


--------------------------------------------------------------------------------------------------------


 ion  position               nearest neighbor table
   1  0.003  0.003  0.004-  52 2.56  46 2.57  30 2.58  42 2.62
   2  0.003  0.504  0.503-  29 2.56  53 2.56  43 2.58  34 2.62
   3  0.544  0.544  0.044-  35 2.47  45 2.47  31 2.47
   4  0.504  0.003  0.503-  33 2.57  44 2.57  51 2.58  32 2.62
   5  0.744  0.244  0.745-  38 2.55  48 2.57  26 2.57  49 2.59
   6  0.244  0.244  0.244-  47 2.55  54 2.57  41 2.57  25 2.59
   7  0.244  0.744  0.744-  27 2.55  36 2.57  50 2.57  39 2.59
   8  0.753  0.753  0.253-  55 2.54  28 2.58  37 2.58  40 2.58
   9  0.625  0.625  0.619-  40 2.63  53 2.65  44 2.65  50 2.66  48 2.66  45 2.69  20 3.86  22 3.86
                            19 3.90  23 3.94  18 3.94  17 3.95
  10  0.374  0.875  0.129-  35 2.63  46 2.64  51 2.64  37 2.65  54 2.66  39 2.70  14 3.73  20 3.82
                            16 3.86  15 3.86  21 3.94  23 3.97
  11  0.876  0.126  0.376-  55 2.64  47 2.65  38 2.65  33 2.65  52 2.65  43 2.65  13 3.86  22 3.86
                            24 3.89  19 3.89  15 3.90  16 3.91
  12  0.095  0.372  0.873-  49 2.51  34 2.61  42 2.61  41 2.63  36 2.63  18 3.73  13 3.73  24 3.87
                            21 3.95
  13  0.875  0.375  0.130-  31 2.63  52 2.64  43 2.64  28 2.65  41 2.66  49 2.70  12 3.73  22 3.82
                            21 3.86  11 3.86  16 3.94  18 3.98
  14  0.373  0.095  0.873-  39 2.51  32 2.61  42 2.61  26 2.62  54 2.63  10 3.73  23 3.73  24 3.87
                            16 3.95
  15  0.125  0.876  0.375-  55 2.64  46 2.65  29 2.65  27 2.65  47 2.65  51 2.66  20 3.86  10 3.86
                            24 3.89  19 3.89  11 3.90  21 3.90
  16  0.625  0.119  0.125-  37 2.63  52 2.65  33 2.65  26 2.66  54 2.66  31 2.69  10 3.86  23 3.86
                            11 3.91  22 3.94  13 3.94  14 3.95
  17  0.372  0.373  0.595-  25 2.51  34 2.61  32 2.61  48 2.62  50 2.63  22 3.73  20 3.73  24 3.87
                             9 3.95
  18  0.875  0.630  0.875-  45 2.63  53 2.64  30 2.64  28 2.65  36 2.66  49 2.70  12 3.73  23 3.82
                            21 3.86  19 3.86   9 3.94  13 3.98
  19  0.875  0.875  0.625-  55 2.64  53 2.65  44 2.65  27 2.65  38 2.65  30 2.66  18 3.86  23 3.86
                            24 3.89  15 3.89  11 3.89   9 3.90
  20  0.375  0.630  0.375-  35 2.63  29 2.64  51 2.64  40 2.65  50 2.66  25 2.70  17 3.73  10 3.82
                             9 3.86  15 3.86  21 3.94  22 3.98
  21  0.119  0.625  0.125-  28 2.63  29 2.65  46 2.65  41 2.66  36 2.66  35 2.69  18 3.86  13 3.86
                            15 3.90  10 3.94  20 3.94  12 3.95
  22  0.629  0.374  0.375-  31 2.63  33 2.64  43 2.64  40 2.65  48 2.66  25 2.69  17 3.73  13 3.82
                            11 3.86   9 3.86  16 3.94  20 3.98
  23  0.630  0.875  0.875-  45 2.63  44 2.64  30 2.64  37 2.65  26 2.66  39 2.70  14 3.73  18 3.82
                            16 3.86  19 3.86   9 3.94  10 3.97
  24  0.125  0.125  0.625-  38 2.64  47 2.64  27 2.64  42 2.68  32 2.68  34 2.68  12 3.87  17 3.87
                            14 3.87  11 3.89  15 3.89  19 3.89
  25  0.385  0.385  0.367-  17 2.51   6 2.59  22 2.69  20 2.70
  26  0.610  0.115  0.884-   5 2.57  14 2.62  23 2.66  16 2.66
  27  0.116  0.886  0.616-   7 2.55  24 2.64  15 2.65  19 2.65
  28  0.881  0.615  0.115-   8 2.58  21 2.63  18 2.65  13 2.65
  29  0.136  0.636  0.364-   2 2.56  20 2.64  21 2.65  15 2.65
  30  0.869  0.869  0.866-   1 2.58  18 2.64  23 2.64  19 2.66
  31  0.637  0.362  0.137-   3 2.47  22 2.63  13 2.63  16 2.69
  32  0.367  0.140  0.640-  17 2.61  14 2.61   4 2.62  24 2.68
  33  0.636  0.136  0.364-   4 2.57  22 2.64  16 2.65  11 2.65
  34  0.140  0.367  0.640-  17 2.61  12 2.61   2 2.62  24 2.68
  35  0.362  0.637  0.137-   3 2.47  20 2.63  10 2.63  21 2.69
  36  0.115  0.609  0.884-   7 2.57  12 2.63  18 2.66  21 2.66
  37  0.615  0.881  0.115-   8 2.58  16 2.63  10 2.65  23 2.65
  38  0.886  0.116  0.616-   5 2.55  24 2.64  11 2.65  19 2.65
  39  0.385  0.867  0.885-  14 2.51   7 2.59  10 2.70  23 2.70
  40  0.615  0.615  0.381-   8 2.58   9 2.63  20 2.65  22 2.65
  41  0.115  0.384  0.110-   6 2.57  12 2.63  13 2.66  21 2.66
  42  0.140  0.140  0.867-  14 2.61  12 2.61   1 2.62  24 2.68
  43  0.869  0.366  0.369-   2 2.58  13 2.64  22 2.64  11 2.65
  44  0.636  0.864  0.636-   4 2.57  23 2.64   9 2.65  19 2.65
  45  0.637  0.637  0.862-   3 2.47  23 2.63  18 2.63   9 2.69
  46  0.136  0.864  0.136-   1 2.57  10 2.64  21 2.65  15 2.65
  47  0.116  0.116  0.386-   6 2.55  24 2.64  11 2.65  15 2.65
  48  0.609  0.384  0.615-   5 2.57  17 2.62  22 2.66   9 2.66
  49  0.867  0.385  0.885-  12 2.51   5 2.59  13 2.70  18 2.70
  50  0.384  0.610  0.615-   7 2.57  17 2.63  20 2.66   9 2.66
  51  0.366  0.869  0.369-   4 2.58  20 2.64  10 2.64  15 2.66
  52  0.864  0.136  0.136-   1 2.56  13 2.64  16 2.65  11 2.65
  53  0.864  0.636  0.636-   2 2.56  18 2.64   9 2.65  19 2.65
  54  0.384  0.115  0.110-   6 2.57  14 2.63  10 2.66  16 2.66
  55  0.886  0.886  0.386-   8 2.54  19 2.64  11 2.64  15 2.64
 

IMPORTANT INFORMATION: All symmetrisations will be switched off!
NOSYMM: (Re-)initialisation of all symmetry stuff for point group C_1.

 
 
 KPOINTS: Automatic mesh                          

Automatic generation of k-mesh.
Space group operators:
 irot       det(A)        alpha          n_x          n_y          n_z        tau_x        tau_y        tau_z
    1     1.000000     0.000001     1.000000     0.000000     0.000000     0.000000     0.000000     0.000000
 
 Subroutine IBZKPT returns following result:
 ===========================================
 
 Found     14 irreducible k-points:
 
 Following reciprocal coordinates:
            Coordinates               Weight
  0.000000  0.000000  0.000000      1.000000
  0.333333  0.000000  0.000000      2.000000
  0.000000  0.333333  0.000000      2.000000
  0.333333  0.333333  0.000000      2.000000
 -0.333333  0.333333  0.000000      2.000000
  0.000000  0.000000  0.333333      2.000000
  0.333333  0.000000  0.333333      2.000000
 -0.333333  0.000000  0.333333      2.000000
  0.000000  0.333333  0.333333      2.000000
  0.333333  0.333333  0.333333      2.000000
 -0.333333  0.333333  0.333333      2.000000
  0.000000 -0.333333  0.333333      2.000000
  0.333333 -0.333333  0.333333      2.000000
 -0.333333 -0.333333  0.333333      2.000000
 
 Following cartesian coordinates:
            Coordinates               Weight
  0.000000  0.000000  0.000000      1.000000
  0.030242  0.000000  0.000000      2.000000
  0.000000  0.030242  0.000000      2.000000
  0.030242  0.030242  0.000000      2.000000
 -0.030242  0.030242  0.000000      2.000000
  0.000000  0.000000  0.030242      2.000000
  0.030242  0.000000  0.030242      2.000000
 -0.030242  0.000000  0.030242      2.000000
  0.000000  0.030242  0.030242      2.000000
  0.030242  0.030242  0.030242      2.000000
 -0.030242  0.030242  0.030242      2.000000
  0.000000 -0.030242  0.030242      2.000000
  0.030242 -0.030242  0.030242      2.000000
 -0.030242 -0.030242  0.030242      2.000000
 
 TETIRR: Found     78 inequivalent tetrahedra from      162


--------------------------------------------------------------------------------------------------------




 Dimension of arrays:
   k-points           NKPTS =     14   k-points in BZ     NKDIM =     14   number of bands    NBANDS=    296
   number of dos      NEDOS =   1601   number of ions     NIONS =     55
   non local maximal  LDIM  =      6   non local SUM 2l+1 LMDIM =     18
   total plane-waves  NPLWV = 729000
   max r-space proj   IRMAX =      1   max aug-charges    IRDMAX=  23711
   dimension x,y,z NGX =    90 NGY =   90 NGZ =   90
   dimension x,y,z NGXF=   180 NGYF=  180 NGZF=  180
   support grid    NGXF=   180 NGYF=  180 NGZF=  180
   ions per type =               8  16  31
 NGX,Y,Z   is equivalent  to a cutoff of  13.57, 13.57, 13.57 a.u.
 NGXF,Y,Z  is equivalent  to a cutoff of  27.15, 27.15, 27.15 a.u.


 I would recommend the setting:
   dimension x,y,z NGX =    88 NGY =   88 NGZ =   88
 SYSTEM =  CdIn2S4                                 
 POSCAR =  Cd In2 S4                               

 Startparameter for this run:
   NWRITE =      2    write-flag & timer
   PREC   = accura    normal or accurate (medium, high low for compatibility)
   ISTART =      0    job   : 0-new  1-cont  2-samecut
   ICHARG =      2    charge: 1-file 2-atom 10-const
   ISPIN  =      1    spin polarized calculation?
   LNONCOLLINEAR =      F non collinear calculations
   LSORBIT =      F    spin-orbit coupling
   INIWAV =      1    electr: 0-lowe 1-rand  2-diag
   LASPH  =      F    aspherical Exc in radial PAW
   METAGGA=      F    non-selfconsistent MetaGGA calc.

 Electronic Relaxation 1
   ENCUT  =  600.0 eV  44.10 Ry    6.64 a.u.  22.01 22.01 22.01*2*pi/ulx,y,z
   ENINI  =  600.0     initial cutoff
   ENAUG  =  456.1 eV  augmentation charge cutoff
   NELM   =     60;   NELMIN=  2; NELMDL= -5     # of ELM steps 
   EDIFF  = 0.1E-04   stopping-criterion for ELM
   LREAL  =      F    real-space projection
   NLSPLINE    = F    spline interpolate recip. space projectors
   LCOMPAT=      F    compatible to vasp.4.4
   GGA_COMPAT  = T    GGA compatible to vasp.4.4-vasp.4.6
   LMAXPAW     = -100 max onsite density
   LMAXMIX     =    2 max onsite mixed and CHGCAR
   VOSKOWN=      0    Vosko Wilk Nusair interpolation
   ROPT   =    0.00000   0.00000   0.00000
 Ionic relaxation
   EDIFFG = -.1E-02   stopping-criterion for IOM
   NSW    =      0    number of steps for IOM
   NBLOCK =      1;   KBLOCK =      1    inner block; outer block 
   IBRION =     -1    ionic relax: 0-MD 1-quasi-New 2-CG
   NFREE  =      1    steps in history (QN), initial steepest desc. (CG)
   ISIF   =      0    stress and relaxation
   IWAVPR =     10    prediction:  0-non 1-charg 2-wave 3-comb
   ISYM   =      0    0-nonsym 1-usesym 2-fastsym
   LCORR  =      T    Harris-Foulkes like correction to forces

   POTIM  = 0.5000    time-step for ionic-motion
   TEIN   =    0.0    initial temperature
   TEBEG  =    0.0;   TEEND  =   0.0 temperature during run
   SMASS  =  -3.00    Nose mass-parameter (am)
   estimated Nose-frequenzy (Omega)   =  0.10E-29 period in steps =****** mass=  -0.278E-26a.u.
   SCALEE = 1.0000    scale energy and forces
   NPACO  =    256;   APACO  = 16.0  distance and # of slots for P.C.
   PSTRESS=    0.0 pullay stress

  Mass of Ions in am
   POMASS = 112.41114.82 32.07
  Ionic Valenz
   ZVAL   =  12.00 13.00  6.00
  Atomic Wigner-Seitz radii
   RWIGS  =  -1.00 -1.00 -1.00
  virtual crystal weights 
   VCA    =   1.00  1.00  1.00
   NELECT =     489.0000    total number of electrons
   NUPDOWN=      -1.0000    fix difference up-down

 DOS related values:
   EMIN   =  -5.00;   EMAX   = 10.00  energy-range for DOS
   EFERMI =   0.00
   ISMEAR =    -4;   SIGMA  =   0.20  broadening in eV -4-tet -1-fermi 0-gaus

 Electronic relaxation 2 (details)
   IALGO  =     38    algorithm
   LDIAG  =      T    sub-space diagonalisation (order eigenvalues)
   LSUBROT=      F    optimize rotation matrix (better conditioning)
   TURBO    =      0    0=normal 1=particle mesh
   IRESTART =      0    0=no restart 2=restart with 2 vectors
   NREBOOT  =      0    no. of reboots
   NMIN     =      0    reboot dimension
   EREF     =   0.00    reference energy to select bands
   IMIX   =      4    mixing-type and parameters
     AMIX     =   0.40;   BMIX     =  1.00
     AMIX_MAG =   1.60;   BMIX_MAG =  1.00
     AMIN     =   0.10
     WC   =   100.;   INIMIX=   1;  MIXPRE=   1;  MAXMIX= -45

 Intra band minimization:
   WEIMIN = 0.0000     energy-eigenvalue tresh-hold
   EBREAK =  0.84E-08  absolut break condition
   DEPER  =   0.30     relativ break condition  

   TIME   =   0.40     timestep for ELM

  volume/ion in A,a.u.               =      24.35       164.31
  Fermi-wavevector in a.u.,A,eV,Ry     =   1.170137  2.211239 18.629383  1.369221
  Thomas-Fermi vector in A             =   2.306600
 
 Write flags
   LWAVE  =      T    write WAVECAR
   LCHARG =      T    write CHGCAR
   LVTOT  =      F    write LOCPOT, total local potential
   LVHAR  =      F    write LOCPOT, Hartree potential only
   LELF   =      F    write electronic localiz. function (ELF)
   LORBIT =     11    0 simple, 1 ext, 2 COOP (PROOUT)


 Dipole corrections
   LMONO  =      F    monopole corrections only (constant potential shift)
   LDIPOL =      F    correct potential (dipole corrections)
   IDIPOL =      0    1-x, 2-y, 3-z, 4-all directions 
   EPSILON=  1.0000000 bulk dielectric constant

 Exchange correlation treatment:
   GGA     =    --    GGA type
   LEXCH   =     8    internal setting for exchange type
   VOSKOWN=      0    Vosko Wilk Nusair interpolation
   LHFCALC =     F    Hartree Fock is set to
   LHFONE  =     F    Hartree Fock one center treatment
   AEXX    =    0.0000 exact exchange contribution

 Linear response parameters
   LEPSILON=     F    determine dielectric tensor
   LRPA    =     F    only Hartree local field effects (RPA)
   LNABLA  =     F    use nabla operator in PAW spheres
   LVEL    =     F    velocity operator in full k-point grid
   LINTERFAST=   F  fast interpolation
   KINTER  =     0    interpolate to denser k-point grid
   CSHIFT  =0.1000    complex shift for real part using Kramers Kronig
   OMEGAMAX=  -1.0    maximum frequency
   DEG_THRESHOLD= 0.2000000E-02 threshold for treating states as degnerate
   RTIME   =    0.100 relaxation time in fs

 Orbital magnetization related:
   ORBITALMAG=     F  switch on orbital magnetization
   LCHIMAG   =     F  perturbation theory with respect to B field
   DQ        =  0.001000  dq finite difference perturbation B field



--------------------------------------------------------------------------------------------------------


 Static calculation
 charge density and potential will be updated during run
 non-spin polarized calculation
 Variant of blocked Davidson
 Davidson routine will perform the subspace rotation
 perform sub-space diagonalisation
    after iterative eigenvector-optimisation
 modified Broyden-mixing scheme, WC =      100.0
 initial mixing is a Kerker type mixing with AMIX =  0.4000 and BMIX =      1.0000
 Hartree-type preconditioning will be used
 using additional bands           51
 reciprocal scheme for non local part
 use partial core corrections
 calculate Harris-corrections to forces 
   (improved forces if not selfconsistent)
 use gradient corrections 
 use of overlap-Matrix (Vanderbilt PP)
 Fermi weights with tetrahedron method witout Bloechl corrections


--------------------------------------------------------------------------------------------------------


  energy-cutoff  :      600.00
  volume of cell :     1339.13
      direct lattice vectors                 reciprocal lattice vectors
    11.022353692  0.000000000  0.000000000     0.090724724  0.000000000  0.000000000
     0.000000000 11.022353692  0.000000000     0.000000000  0.090724724  0.000000000
     0.000000000  0.000000000 11.022353692     0.000000000  0.000000000  0.090724724

  length of vectors
    11.022353692 11.022353692 11.022353692     0.090724724  0.090724724  0.090724724


 
 k-points in units of 2pi/SCALE and weight: Automatic mesh                          
   0.00000000  0.00000000  0.00000000       0.037
   0.03024157  0.00000000  0.00000000       0.074
   0.00000000  0.03024157  0.00000000       0.074
   0.03024157  0.03024157  0.00000000       0.074
  -0.03024157  0.03024157  0.00000000       0.074
   0.00000000  0.00000000  0.03024157       0.074
   0.03024157  0.00000000  0.03024157       0.074
  -0.03024157  0.00000000  0.03024157       0.074
   0.00000000  0.03024157  0.03024157       0.074
   0.03024157  0.03024157  0.03024157       0.074
  -0.03024157  0.03024157  0.03024157       0.074
   0.00000000 -0.03024157  0.03024157       0.074
   0.03024157 -0.03024157  0.03024157       0.074
  -0.03024157 -0.03024157  0.03024157       0.074
 
 k-points in reciprocal lattice and weights: Automatic mesh                          
   0.00000000  0.00000000  0.00000000       0.037
   0.33333333  0.00000000  0.00000000       0.074
   0.00000000  0.33333333  0.00000000       0.074
   0.33333333  0.33333333  0.00000000       0.074
  -0.33333333  0.33333333  0.00000000       0.074
   0.00000000  0.00000000  0.33333333       0.074
   0.33333333  0.00000000  0.33333333       0.074
  -0.33333333  0.00000000  0.33333333       0.074
   0.00000000  0.33333333  0.33333333       0.074
   0.33333333  0.33333333  0.33333333       0.074
  -0.33333333  0.33333333  0.33333333       0.074
   0.00000000 -0.33333333  0.33333333       0.074
   0.33333333 -0.33333333  0.33333333       0.074
  -0.33333333 -0.33333333  0.33333333       0.074
 
 position of ions in fractional coordinates (direct lattice) 
   0.00267093  0.00276604  0.00369455
   0.00275413  0.50379327  0.50275184
   0.54406653  0.54406574  0.04406824
   0.50370338  0.00273194  0.50271890
   0.74352544  0.24445579  0.74451197
   0.24446532  0.24447697  0.24351867
   0.24446747  0.74357025  0.74443361
   0.75302069  0.75312882  0.25313290
   0.62515854  0.62512716  0.61901004
   0.37442958  0.87477958  0.12943610
   0.87569555  0.12564901  0.37568599
   0.09464795  0.37247190  0.87255175
   0.87480932  0.37454981  0.12963256
   0.37264008  0.09468717  0.87250364
   0.12534946  0.87555069  0.37546673
   0.62516655  0.11905588  0.12517418
   0.37248759  0.37255196  0.59465213
   0.87495125  0.62965040  0.87458287
   0.87548175  0.87548580  0.62519056
   0.37458727  0.62969916  0.37484485
   0.11906242  0.62515759  0.12517121
   0.62943689  0.37436053  0.37484475
   0.62954244  0.87457731  0.87456508
   0.12496817  0.12493434  0.62497185
   0.38529862  0.38535349  0.36742142
   0.60960349  0.11470256  0.88421483
   0.11568884  0.88563876  0.61560130
   0.88122595  0.61486725  0.11486805
   0.13559339  0.63558534  0.36444421
   0.86900348  0.86897503  0.86609115
   0.63671402  0.36237934  0.13678341
   0.36738180  0.14013357  0.64008082
   0.63560176  0.13556282  0.36445286
   0.14008788  0.36737851  0.64012638
   0.36239084  0.63670458  0.13677293
   0.11496755  0.60948258  0.88414314
   0.61468215  0.88126393  0.11482151
   0.88571029  0.11570845  0.61571483
   0.38533126  0.86741766  0.88528410
   0.61483074  0.61466647  0.38127300
   0.11474406  0.38417681  0.10957501
   0.14019429  0.14005586  0.86736709
   0.86892750  0.36613105  0.36907974
   0.63556555  0.86444938  0.63559966
   0.63686021  0.63651000  0.86232714
   0.13557558  0.86445032  0.13555577
   0.11571284  0.11571364  0.38570840
   0.60947930  0.38407914  0.61489013
   0.86742953  0.38535016  0.88535064
   0.38417743  0.60958072  0.61474193
   0.36610212  0.86909410  0.36890112
   0.86444373  0.13559052  0.13559130
   0.86444460  0.63558558  0.63559129
   0.38412975  0.11480771  0.10954729
   0.88586036  0.88617518  0.38581228
 
 position of ions in cartesian coordinates  (Angst):
   0.02943991  0.03048827  0.04072258
   0.03035698  5.55298755  5.54150859
   5.99689377  5.99688507  0.48573576
   5.55199677  0.03011244  5.54114553
   8.19540041  2.69447821  8.20627423
   2.69458324  2.69471167  2.68414892
   2.69460697  8.19589434  8.20541053
   8.30006039  8.30125219  2.79012031
   6.89071854  6.89037261  6.82294759
   4.12709521  9.64212995  1.42669045
   9.65222613  1.38494782  4.14094382
   1.04324316  4.10551705  9.61757398
   9.64245775  4.12842054  1.42885592
   4.10737077  1.04367546  9.61704367
   1.38164607  9.65062942  4.13852711
   6.89080687  1.31227597  1.37971409
   4.10569000  4.10639943  6.55446612
   9.64402219  6.94022944  9.63996173
   9.64986949  9.64991419  6.89107148
   4.12883340  6.94076691  4.13167253
   1.31234811  6.89070804  1.37968135
   6.93787601  4.12633419  4.13167145
   6.93903948  9.63990047  9.63976558
   1.37744333  1.37707054  6.88866078
   4.24689766  4.24750247  4.04984889
   6.71926524  1.26429214  9.74612861
   1.27516334  9.76182362  6.78537521
   9.71318409  6.77728428  1.26611630
   1.49455828  7.00564642  4.01703297
   9.57846375  9.57815016  9.54636301
   7.01808715  3.99427328  1.50767516
   4.04941215  1.54460174  7.05519721
   7.00582743  1.49422135  4.01712831
   1.54409821  4.04937588  7.05569933
   3.99440001  7.01798313  1.50755963
   1.26721300  6.71793253  9.74533837
   6.77524404  9.71360275  1.26560335
   9.76261206  1.27537945  6.78662664
   4.24725747  9.56098427  9.75791446
   6.77688188  6.77507120  4.20252581
   1.26474966  4.23453268  1.20777451
   1.54527104  1.54374522  9.56042689
   9.57762626  4.03562593  4.06812743
   7.00542830  9.52826677  7.00580422
   7.01969851  7.01583830  9.50487473
   1.49436199  9.52827719  1.49414362
   1.27542782  1.27543664  4.25141443
   6.71789640  4.23345614  6.77753646
   9.56111505  4.24746574  9.75864790
   4.23453952  6.71901428  6.77590295
   4.03530709  9.57946260  4.06615861
   9.52820454  1.49452668  1.49453524
   9.52821411  7.00564909  7.00571200
   4.23401399  1.26545122  1.20746894
   9.76426617  9.76773628  4.25255938
 


--------------------------------------------------------------------------------------------------------


 k-point  1 :   0.0000 0.0000 0.0000  plane waves:   44473
 k-point  2 :   0.3333 0.0000 0.0000  plane waves:   44660
 k-point  3 :   0.0000 0.3333 0.0000  plane waves:   44660
 k-point  4 :   0.3333 0.3333 0.0000  plane waves:   44717
 k-point  5 :  -0.3333 0.3333 0.0000  plane waves:   44717
 k-point  6 :   0.0000 0.0000 0.3333  plane waves:   44660
 k-point  7 :   0.3333 0.0000 0.3333  plane waves:   44717
 k-point  8 :  -0.3333 0.0000 0.3333  plane waves:   44717
 k-point  9 :   0.0000 0.3333 0.3333  plane waves:   44717
 k-point 10 :   0.3333 0.3333 0.3333  plane waves:   44681
 k-point 11 :  -0.3333 0.3333 0.3333  plane waves:   44681
 k-point 12 :   0.0000-0.3333 0.3333  plane waves:   44717
 k-point 13 :   0.3333-0.3333 0.3333  plane waves:   44681
 k-point 14 :  -0.3333-0.3333 0.3333  plane waves:   44681

 maximum and minimum number of plane-waves per node :     22426    22216

 maximum number of plane-waves:     44717
 maximum index in each direction: 
   IXMAX=   22   IYMAX=   22   IZMAX=   22
   IXMIN=  -22   IYMIN=  -22   IZMIN=  -22

 NGX is ok and might be reduce to  90
 NGY is ok and might be reduce to  90
 NGZ is ok and might be reduce to  90

 parallel 3D FFT for wavefunctions:
    minimum data exchange during FFTs selected (reduces bandwidth)
 parallel 3D FFT for charge:
    minimum data exchange during FFTs selected (reduces bandwidth)


 total amount of memory used by VASP on root node   660661. kBytes
========================================================================

   base      :      30000. kBytes
   nonl-proj :     154993. kBytes
   fftplans  :      35958. kBytes
   grid      :      62735. kBytes
   one-center:        435. kBytes
   wavefun   :     376540. kBytes
 
     INWAV:  cpu time    0.00: real time    0.00
 Broyden mixing: mesh for mixing (old mesh)
   NGX = 45   NGY = 45   NGZ = 45
  (NGX  =180   NGY  =180   NGZ  =180)
  gives a total of  91125 points

 initial charge density was supplied:
 charge density of overlapping atoms calculated
 number of electron     490.0000000 magnetization 
 keeping initial charge density in first step


--------------------------------------------------------------------------------------------------------


 Maximum index for augmentation-charges         3310 (set IRDMAX)


--------------------------------------------------------------------------------------------------------


 First call to EWALD:  gamma=   0.161
 Maximum number of real-space cells 3x 3x 3
 Maximum number of reciprocal cells 3x 3x 3

 FEWALD executed in parallel
    FEWALD:  cpu time    0.01: real time    0.01


----------------------------------------- Iteration    1(   1)  ---------------------------------------


    POTLOK:  cpu time    1.98: real time    1.99
    SETDIJ:  cpu time    0.07: real time    0.07
     EDDAV:  cpu time  906.58: real time  911.45
 BZINTS: Fermi energy: 32.047109;489.000000 electrons
         Band energy:4308.282737;  BLOECHL correction:  0.000000
       DOS:  cpu time    4.86: real time    4.86
    --------------------------------------------
      LOOP:  cpu time  913.49: real time  918.38

 eigenvalue-minimisations  :  8288
 total energy-change (2. order) : 0.6316410E+04  (-0.2205697E+05)
 number of electron     490.0000000 magnetization 
 augmentation part      490.0000000 magnetization 

 Free energy of the ion-electron system (eV)
  ---------------------------------------------------
  alpha Z        PSCENC =      1241.77088299
  Ewald energy   TEWEN  =    -31091.83833514
  -Hartree energ DENC   =    -13907.24969077
  -exchange      EXHF   =         0.00000000
  -V(xc)+E(xc)   XCENC  =      1091.20948907
  PAW double counting   =     38410.54010082   -37892.47695797
  entropy T*S    EENTRO =         0.00000000
  eigenvalues    EBANDS =      4308.28273715
  atomic energy  EATOM  =     44156.17162135
  ---------------------------------------------------
  free energy    TOTEN  =      6316.40984751 eV

  energy without entropy =     6316.40984751  energy(sigma->0) =     6316.40984751


--------------------------------------------------------------------------------------------------------




----------------------------------------- Iteration    1(   2)  ---------------------------------------


     EDDAV:  cpu time  942.73: real time  945.40
 BZINTS: Fermi energy: 12.109944;489.000000 electrons
         Band energy:-926.147385;  BLOECHL correction:  0.000000
       DOS:  cpu time    0.55: real time    0.55
    --------------------------------------------
      LOOP:  cpu time  943.29: real time  945.98

 eigenvalue-minimisations  :  8288
 total energy-change (2. order) :-0.5234430E+04  (-0.5090384E+04)
 number of electron     490.0000000 magnetization 
 augmentation part      490.0000000 magnetization 

 Free energy of the ion-electron system (eV)
  ---------------------------------------------------
  alpha Z        PSCENC =      1241.77088299
  Ewald energy   TEWEN  =    -31091.83833514
  -Hartree energ DENC   =    -13907.24969077
  -exchange      EXHF   =         0.00000000
  -V(xc)+E(xc)   XCENC  =      1091.20948907
  PAW double counting   =     38410.54010082   -37892.47695797
  entropy T*S    EENTRO =         0.00000000
  eigenvalues    EBANDS =      -926.14738542
  atomic energy  EATOM  =     44156.17162135
  ---------------------------------------------------
  free energy    TOTEN  =      1081.97972493 eV

  energy without entropy =     1081.97972493  energy(sigma->0) =     1081.97972493


--------------------------------------------------------------------------------------------------------




----------------------------------------- Iteration    1(   3)  ---------------------------------------


     EDDAV:  cpu time 1252.73: real time 1255.97
 BZINTS: Fermi energy:  6.086891;489.000000 electrons
         Band energy:***********;  BLOECHL correction:  0.000000
       DOS:  cpu time    0.08: real time    0.08
    --------------------------------------------
      LOOP:  cpu time 1252.83: real time 1256.08

 eigenvalue-minimisations  :  9088
 total energy-change (2. order) :-0.1152899E+04  (-0.1075608E+04)
 number of electron     490.0000000 magnetization 
 augmentation part      490.0000000 magnetization 

 Free energy of the ion-electron system (eV)
  ---------------------------------------------------
  alpha Z        PSCENC =      1241.77088299
  Ewald energy   TEWEN  =    -31091.83833514
  -Hartree energ DENC   =    -13907.24969077
  -exchange      EXHF   =         0.00000000
  -V(xc)+E(xc)   XCENC  =      1091.20948907
  PAW double counting   =     38410.54010082   -37892.47695797
  entropy T*S    EENTRO =         0.00000000
  eigenvalues    EBANDS =     -2079.04620395
  atomic energy  EATOM  =     44156.17162135
  ---------------------------------------------------
  free energy    TOTEN  =       -70.91909360 eV

  energy without entropy =      -70.91909360  energy(sigma->0) =      -70.91909360


--------------------------------------------------------------------------------------------------------




----------------------------------------- Iteration    1(   4)  ---------------------------------------


     EDDAV:  cpu time 1192.17: real time 1196.72
 BZINTS: Fermi energy:  5.068272;489.000000 electrons
         Band energy:***********;  BLOECHL correction:  0.000000
       DOS:  cpu time    0.08: real time    0.08
    --------------------------------------------
      LOOP:  cpu time 1192.26: real time 1196.82

 eigenvalue-minimisations  : 10744
 total energy-change (2. order) :-0.1479213E+03  (-0.1447745E+03)
 number of electron     490.0000000 magnetization 
 augmentation part      490.0000000 magnetization 

 Free energy of the ion-electron system (eV)
  ---------------------------------------------------
  alpha Z        PSCENC =      1241.77088299
  Ewald energy   TEWEN  =    -31091.83833514
  -Hartree energ DENC   =    -13907.24969077
  -exchange      EXHF   =         0.00000000
  -V(xc)+E(xc)   XCENC  =      1091.20948907
  PAW double counting   =     38410.54010082   -37892.47695797
  entropy T*S    EENTRO =         0.00000000
  eigenvalues    EBANDS =     -2226.96754765
  atomic energy  EATOM  =     44156.17162135
  ---------------------------------------------------
  free energy    TOTEN  =      -218.84043729 eV

  energy without entropy =     -218.84043729  energy(sigma->0) =     -218.84043729


--------------------------------------------------------------------------------------------------------




----------------------------------------- Iteration    1(   5)  ---------------------------------------


     EDDAV:  cpu time 1083.58: real time 1085.41
 BZINTS: Fermi energy:  4.925994;489.000000 electrons
         Band energy:***********;  BLOECHL correction:  0.000000
       DOS:  cpu time    0.08: real time    0.08
    CHARGE:  cpu time   25.35: real time   25.42
    MIXING:  cpu time    0.07: real time    0.07
    --------------------------------------------
      LOOP:  cpu time 1109.07: real time 1110.99

 eigenvalue-minimisations  : 10032
 total energy-change (2. order) :-0.5660460E+01  (-0.5584982E+01)
 number of electron     488.9999989 magnetization 
 augmentation part      132.7767450 magnetization 

 Broyden mixing:
  rms(total) = 0.41043E+01    rms(broyden)= 0.41042E+01
  rms(prec ) = 0.44528E+01
  weight for this iteration     100.00

 Free energy of the ion-electron system (eV)
  ---------------------------------------------------
  alpha Z        PSCENC =      1241.77088299
  Ewald energy   TEWEN  =    -31091.83833514
  -Hartree energ DENC   =    -13907.24969077
  -exchange      EXHF   =         0.00000000
  -V(xc)+E(xc)   XCENC  =      1091.20948907
  PAW double counting   =     38410.54010082   -37892.47695797
  entropy T*S    EENTRO =         0.00000000
  eigenvalues    EBANDS =     -2232.62800812
  atomic energy  EATOM  =     44156.17162135
  ---------------------------------------------------
  free energy    TOTEN  =      -224.50089776 eV

  energy without entropy =     -224.50089776  energy(sigma->0) =     -224.50089776


--------------------------------------------------------------------------------------------------------




----------------------------------------- Iteration    1(   6)  ---------------------------------------


    POTLOK:  cpu time    2.36: real time    2.36
    SETDIJ:  cpu time    0.08: real time    0.08
     EDDAV:  cpu time 1192.74: real time 1194.20
 BZINTS: Fermi energy:  5.085714;489.000000 electrons
         Band energy:***********;  BLOECHL correction:  0.000000
       DOS:  cpu time    0.08: real time    0.08
    CHARGE:  cpu time   22.85: real time   22.90
    MIXING:  cpu time    0.06: real time    0.07
    --------------------------------------------
      LOOP:  cpu time 1218.18: real time 1219.69

 eigenvalue-minimisations  : 10904
 total energy-change (2. order) : 0.1375315E+02  (-0.2408720E+01)
 number of electron     488.9999989 magnetization 
 augmentation part      134.0064238 magnetization 

 Broyden mixing:
  rms(total) = 0.26018E+01    rms(broyden)= 0.26018E+01
  rms(prec ) = 0.26856E+01
  weight for this iteration     100.00

 eigenvalues of (default mixing * dielectric matrix)
  average eigenvalue GAMMA=   1.7805
  1.7805

 Free energy of the ion-electron system (eV)
  ---------------------------------------------------
  alpha Z        PSCENC =      1241.77088299
  Ewald energy   TEWEN  =    -31091.83833514
  -Hartree energ DENC   =    -13845.33950820
  -exchange      EXHF   =         0.00000000
  -V(xc)+E(xc)   XCENC  =      1092.83293640
  PAW double counting   =     46843.33426792   -46296.08555460
  entropy T*S    EENTRO =         0.00000000
  eigenvalues    EBANDS =     -2311.59405998
  atomic energy  EATOM  =     44156.17162135
  ---------------------------------------------------
  free energy    TOTEN  =      -210.74774925 eV

  energy without entropy =     -210.74774925  energy(sigma->0) =     -210.74774925


--------------------------------------------------------------------------------------------------------




----------------------------------------- Iteration    1(   7)  ---------------------------------------


    POTLOK:  cpu time    2.10: real time    2.10
    SETDIJ:  cpu time    0.08: real time    0.08
     EDDAV:  cpu time 1143.24: real time 1145.64
 BZINTS: Fermi energy:  5.184577;489.000000 electrons
         Band energy:***********;  BLOECHL correction:  0.000000
       DOS:  cpu time    0.08: real time    0.08
    CHARGE:  cpu time   20.29: real time   20.29
    MIXING:  cpu time    0.06: real time    0.06
    --------------------------------------------
      LOOP:  cpu time 1165.85: real time 1168.27

 eigenvalue-minimisations  : 11040
 total energy-change (2. order) : 0.1567799E+00  (-0.2139464E+01)
 number of electron     488.9999990 magnetization 
 augmentation part      134.9448238 magnetization 

 Broyden mixing:
  rms(total) = 0.92762E+00    rms(broyden)= 0.92762E+00
  rms(prec ) = 0.97244E+00
  weight for this iteration     100.00

 eigenvalues of (default mixing * dielectric matrix)
  average eigenvalue GAMMA=   1.6677
  1.2861  2.0493

 Free energy of the ion-electron system (eV)
  ---------------------------------------------------
  alpha Z        PSCENC =      1241.77088299
  Ewald energy   TEWEN  =    -31091.83833514
  -Hartree energ DENC   =    -13852.99942568
  -exchange      EXHF   =         0.00000000
  -V(xc)+E(xc)   XCENC  =      1097.78577315
  PAW double counting   =     56387.50814949   -55832.12393138
  entropy T*S    EENTRO =         0.00000000
  eigenvalues    EBANDS =     -2316.86570416
  atomic energy  EATOM  =     44156.17162135
  ---------------------------------------------------
  free energy    TOTEN  =      -210.59096937 eV

  energy without entropy =     -210.59096937  energy(sigma->0) =     -210.59096937


--------------------------------------------------------------------------------------------------------




----------------------------------------- Iteration    1(   8)  ---------------------------------------


    POTLOK:  cpu time    2.40: real time    2.40
    SETDIJ:  cpu time    0.07: real time    0.07
     EDDAV:  cpu time 1097.20: real time 1099.36
 BZINTS: Fermi energy:  5.160086;489.000000 electrons
         Band energy:***********;  BLOECHL correction:  0.000000
       DOS:  cpu time    0.08: real time    0.08
    CHARGE:  cpu time   25.53: real time   25.66
    MIXING:  cpu time    0.06: real time    0.06
    --------------------------------------------
      LOOP:  cpu time 1125.34: real time 1127.65

 eigenvalue-minimisations  : 10808
 total energy-change (2. order) : 0.1518047E+00  (-0.3603296E+00)
 number of electron     488.9999990 magnetization 
 augmentation part      134.4249715 magnetization 

 Broyden mixing:
  rms(total) = 0.42447E+00    rms(broyden)= 0.42447E+00
  rms(prec ) = 0.43697E+00
  weight for this iteration     100.00

 eigenvalues of (default mixing * dielectric matrix)
  average eigenvalue GAMMA=   1.3849
  2.1824  0.9862  0.9862

 Free energy of the ion-electron system (eV)
  ---------------------------------------------------
  alpha Z        PSCENC =      1241.77088299
  Ewald energy   TEWEN  =    -31091.83833514
  -Hartree energ DENC   =    -13876.87862600
  -exchange      EXHF   =         0.00000000
  -V(xc)+E(xc)   XCENC  =      1098.01458592
  PAW double counting   =     59593.73661426   -59045.70831456
  entropy T*S    EENTRO =         0.00000000
  eigenvalues    EBANDS =     -2285.70759347
  atomic energy  EATOM  =     44156.17162135
  ---------------------------------------------------
  free energy    TOTEN  =      -210.43916466 eV

  energy without entropy =     -210.43916466  energy(sigma->0) =     -210.43916466


--------------------------------------------------------------------------------------------------------




----------------------------------------- Iteration    1(   9)  ---------------------------------------


    POTLOK:  cpu time    2.25: real time    2.25
    SETDIJ:  cpu time    0.08: real time    0.07
     EDDAV:  cpu time 1191.85: real time 1194.59
 BZINTS: Fermi energy:  5.166473;489.000000 electrons
         Band energy:***********;  BLOECHL correction:  0.000000
       DOS:  cpu time    0.07: real time    0.07
    CHARGE:  cpu time   33.56: real time   33.56
    MIXING:  cpu time    0.07: real time    0.07
    --------------------------------------------
      LOOP:  cpu time 1227.88: real time 1230.73

 eigenvalue-minimisations  : 11056
 total energy-change (2. order) : 0.1255206E-01  (-0.2307270E-01)
 number of electron     488.9999990 magnetization 
 augmentation part      134.4980877 magnetization 

 Broyden mixing:
  rms(total) = 0.16793E+00    rms(broyden)= 0.16793E+00
  rms(prec ) = 0.17450E+00
  weight for this iteration     100.00

 eigenvalues of (default mixing * dielectric matrix)
  average eigenvalue GAMMA=   1.4337
  1.8408  1.8408  1.0266  1.0266

 Free energy of the ion-electron system (eV)
  ---------------------------------------------------
  alpha Z        PSCENC =      1241.77088299
  Ewald energy   TEWEN  =    -31091.83833514
  -Hartree energ DENC   =    -13869.08054469
  -exchange      EXHF   =         0.00000000
  -V(xc)+E(xc)   XCENC  =      1098.23694538
  PAW double counting   =     60438.57605676   -59888.34223945
  entropy T*S    EENTRO =         0.00000000
  eigenvalues    EBANDS =     -2295.92099980
  atomic energy  EATOM  =     44156.17162135
  ---------------------------------------------------
  free energy    TOTEN  =      -210.42661260 eV

  energy without entropy =     -210.42661260  energy(sigma->0) =     -210.42661260


--------------------------------------------------------------------------------------------------------




----------------------------------------- Iteration    1(  10)  ---------------------------------------


    POTLOK:  cpu time    2.10: real time    2.11
    SETDIJ:  cpu time    0.09: real time    0.09
     EDDAV:  cpu time 1153.58: real time 1154.84
 BZINTS: Fermi energy:  5.169597;489.000000 electrons
         Band energy:***********;  BLOECHL correction:  0.000000
       DOS:  cpu time    0.08: real time    0.08
    CHARGE:  cpu time   21.99: real time   21.99
    MIXING:  cpu time    0.08: real time    0.07
    --------------------------------------------
      LOOP:  cpu time 1177.91: real time 1179.25

 eigenvalue-minimisations  : 10864
 total energy-change (2. order) :-0.4309123E-02  (-0.3323572E-02)
 number of electron     488.9999990 magnetization 
 augmentation part      134.5257078 magnetization 

 Broyden mixing:
  rms(total) = 0.11072E+00    rms(broyden)= 0.11072E+00
  rms(prec ) = 0.11421E+00
  weight for this iteration     100.00

 eigenvalues of (default mixing * dielectric matrix)
  average eigenvalue GAMMA=   1.6063
  2.4736  2.4736  1.1491  1.1491  0.7864

 Free energy of the ion-electron system (eV)
  ---------------------------------------------------
  alpha Z        PSCENC =      1241.77088299
  Ewald energy   TEWEN  =    -31091.83833514
  -Hartree energ DENC   =    -13867.28999987
  -exchange      EXHF   =         0.00000000
  -V(xc)+E(xc)   XCENC  =      1098.28167404
  PAW double counting   =     60321.61485085   -59770.74046849
  entropy T*S    EENTRO =         0.00000000
  eigenvalues    EBANDS =     -2298.40114745
  atomic energy  EATOM  =     44156.17162135
  ---------------------------------------------------
  free energy    TOTEN  =      -210.43092172 eV

  energy without entropy =     -210.43092172  energy(sigma->0) =     -210.43092172


--------------------------------------------------------------------------------------------------------




----------------------------------------- Iteration    1(  11)  ---------------------------------------


    POTLOK:  cpu time    2.56: real time    2.56
    SETDIJ:  cpu time    0.09: real time    0.09
     EDDAV:  cpu time 1198.77: real time 1201.85
 BZINTS: Fermi energy:  5.173413;489.000000 electrons
         Band energy:***********;  BLOECHL correction:  0.000000
       DOS:  cpu time    0.08: real time    0.08
    CHARGE:  cpu time   23.17: real time   23.38
    MIXING:  cpu time    0.07: real time    0.07
    --------------------------------------------
      LOOP:  cpu time 1224.74: real time 1228.07

 eigenvalue-minimisations  : 11000
 total energy-change (2. order) :-0.5306679E-02  (-0.1114455E-02)
 number of electron     488.9999990 magnetization 
 augmentation part      134.5036082 magnetization 

 Broyden mixing:
  rms(total) = 0.29140E-01    rms(broyden)= 0.29140E-01
  rms(prec ) = 0.34690E-01
  weight for this iteration     100.00

 eigenvalues of (default mixing * dielectric matrix)
  average eigenvalue GAMMA=   1.4761
  2.3890  2.3890  1.1286  1.1286  0.9106  0.9106

 Free energy of the ion-electron system (eV)
  ---------------------------------------------------
  alpha Z        PSCENC =      1241.77088299
  Ewald energy   TEWEN  =    -31091.83833514
  -Hartree energ DENC   =    -13869.87400072
  -exchange      EXHF   =         0.00000000
  -V(xc)+E(xc)   XCENC  =      1098.43943941
  PAW double counting   =     60260.68688929   -59709.78277395
  entropy T*S    EENTRO =         0.00000000
  eigenvalues    EBANDS =     -2296.00995165
  atomic energy  EATOM  =     44156.17162135
  ---------------------------------------------------
  free energy    TOTEN  =      -210.43622840 eV

  energy without entropy =     -210.43622840  energy(sigma->0) =     -210.43622840


--------------------------------------------------------------------------------------------------------




----------------------------------------- Iteration    1(  12)  ---------------------------------------


    POTLOK:  cpu time    1.99: real time    1.99
    SETDIJ:  cpu time    0.09: real time    0.09
     EDDAV:  cpu time 1030.19: real time 1032.34
 BZINTS: Fermi energy:  5.175771;489.000000 electrons
         Band energy:***********;  BLOECHL correction:  0.000000
       DOS:  cpu time    0.08: real time    0.08
    CHARGE:  cpu time   23.19: real time   23.26
    MIXING:  cpu time    0.07: real time    0.07
    --------------------------------------------
      LOOP:  cpu time 1055.61: real time 1057.84

 eigenvalue-minimisations  : 10760
 total energy-change (2. order) : 0.1224233E-02  (-0.4420372E-03)
 number of electron     488.9999990 magnetization 
 augmentation part      134.5209573 magnetization 

 Broyden mixing:
  rms(total) = 0.15815E-01    rms(broyden)= 0.15815E-01
  rms(prec ) = 0.17340E-01
  weight for this iteration     100.00

 eigenvalues of (default mixing * dielectric matrix)
  average eigenvalue GAMMA=   1.4947
  2.3617  2.3617  1.4256  1.4256  1.0517  1.0517  0.7848

 Free energy of the ion-electron system (eV)
  ---------------------------------------------------
  alpha Z        PSCENC =      1241.77088299
  Ewald energy   TEWEN  =    -31091.83833514
  -Hartree energ DENC   =    -13869.76503474
  -exchange      EXHF   =         0.00000000
  -V(xc)+E(xc)   XCENC  =      1098.49987052
  PAW double counting   =     60254.59284553   -59703.36174787
  entropy T*S    EENTRO =         0.00000000
  eigenvalues    EBANDS =     -2296.50510681
  atomic energy  EATOM  =     44156.17162135
  ---------------------------------------------------
  free energy    TOTEN  =      -210.43500417 eV

  energy without entropy =     -210.43500417  energy(sigma->0) =     -210.43500417


--------------------------------------------------------------------------------------------------------




----------------------------------------- Iteration    1(  13)  ---------------------------------------


    POTLOK:  cpu time    2.34: real time    2.34
    SETDIJ:  cpu time    0.08: real time    0.08
     EDDAV:  cpu time 1091.34: real time 1093.44
 BZINTS: Fermi energy:  5.177273;489.000000 electrons
         Band energy:***********;  BLOECHL correction:  0.000000
       DOS:  cpu time    0.08: real time    0.08
    CHARGE:  cpu time   26.55: real time   26.55
    MIXING:  cpu time    0.07: real time    0.07
    --------------------------------------------
      LOOP:  cpu time 1120.45: real time 1122.57

 eigenvalue-minimisations  :  9792
 total energy-change (2. order) :-0.4013696E-03  (-0.1274517E-03)
 number of electron     488.9999990 magnetization 
 augmentation part      134.5258493 magnetization 

 Broyden mixing:
  rms(total) = 0.75579E-02    rms(broyden)= 0.75579E-02
  rms(prec ) = 0.83871E-02
  weight for this iteration     100.00

 eigenvalues of (default mixing * dielectric matrix)
  average eigenvalue GAMMA=   1.5216
  2.5451  2.5451  1.4191  1.4191  1.3827  0.8327  1.0144  1.0144

 Free energy of the ion-electron system (eV)
  ---------------------------------------------------
  alpha Z        PSCENC =      1241.77088299
  Ewald energy   TEWEN  =    -31091.83833514
  -Hartree energ DENC   =    -13870.34057008
  -exchange      EXHF   =         0.00000000
  -V(xc)+E(xc)   XCENC  =      1098.54058662
  PAW double counting   =     60260.53829622   -59709.26051407
  entropy T*S    EENTRO =         0.00000000
  eigenvalues    EBANDS =     -2296.01737343
  atomic energy  EATOM  =     44156.17162135
  ---------------------------------------------------
  free energy    TOTEN  =      -210.43540554 eV

  energy without entropy =     -210.43540554  energy(sigma->0) =     -210.43540554


--------------------------------------------------------------------------------------------------------




----------------------------------------- Iteration    1(  14)  ---------------------------------------


    POTLOK:  cpu time    2.06: real time    2.05
    SETDIJ:  cpu time    0.08: real time    0.08
     EDDAV:  cpu time  986.52: real time  989.01
 BZINTS: Fermi energy:  5.178064;489.000000 electrons
         Band energy:***********;  BLOECHL correction:  0.000000
       DOS:  cpu time    0.08: real time    0.08
    CHARGE:  cpu time   21.64: real time   21.64
    MIXING:  cpu time    0.06: real time    0.07
    --------------------------------------------
      LOOP:  cpu time 1010.44: real time 1012.95

 eigenvalue-minimisations  :  9144
 total energy-change (2. order) :-0.1585882E-03  (-0.1362861E-04)
 number of electron     488.9999990 magnetization 
 augmentation part      134.5253305 magnetization 

 Broyden mixing:
  rms(total) = 0.32344E-02    rms(broyden)= 0.32344E-02
  rms(prec ) = 0.37636E-02
  weight for this iteration     100.00

 eigenvalues of (default mixing * dielectric matrix)
  average eigenvalue GAMMA=   1.4898
  2.7412  2.1253  2.1253  1.3684  1.3684  1.0266  1.0266  0.8570  0.7692

 Free energy of the ion-electron system (eV)
  ---------------------------------------------------
  alpha Z        PSCENC =      1241.77088299
  Ewald energy   TEWEN  =    -31091.83833514
  -Hartree energ DENC   =    -13870.67527169
  -exchange      EXHF   =         0.00000000
  -V(xc)+E(xc)   XCENC  =      1098.55765329
  PAW double counting   =     60245.68896887   -59694.38848772
  entropy T*S    EENTRO =         0.00000000
  eigenvalues    EBANDS =     -2295.72259608
  atomic energy  EATOM  =     44156.17162135
  ---------------------------------------------------
  free energy    TOTEN  =      -210.43556412 eV

  energy without entropy =     -210.43556412  energy(sigma->0) =     -210.43556412


--------------------------------------------------------------------------------------------------------




----------------------------------------- Iteration    1(  15)  ---------------------------------------


    POTLOK:  cpu time    2.23: real time    2.23
    SETDIJ:  cpu time    0.07: real time    0.07
     EDDAV:  cpu time  810.65: real time  812.30
 BZINTS: Fermi energy:  5.178365;489.000000 electrons
         Band energy:***********;  BLOECHL correction:  0.000000
       DOS:  cpu time    0.08: real time    0.08
    CHARGE:  cpu time   22.96: real time   23.07
    MIXING:  cpu time    0.07: real time    0.07
    --------------------------------------------
      LOOP:  cpu time  836.06: real time  837.84

 eigenvalue-minimisations  :  6904
 total energy-change (2. order) :-0.4168575E-04  (-0.2362267E-05)
 number of electron     488.9999990 magnetization 
 augmentation part      134.5255022 magnetization 

 Broyden mixing:
  rms(total) = 0.17787E-02    rms(broyden)= 0.17787E-02
  rms(prec ) = 0.22695E-02
  weight for this iteration     100.00

 eigenvalues of (default mixing * dielectric matrix)
  average eigenvalue GAMMA=   1.5905
  3.0491  2.4555  2.4555  1.5089  1.5089  1.0593  1.0593  0.8237  0.9925  0.9925

 Free energy of the ion-electron system (eV)
  ---------------------------------------------------
  alpha Z        PSCENC =      1241.77088299
  Ewald energy   TEWEN  =    -31091.83833514
  -Hartree energ DENC   =    -13870.79505683
  -exchange      EXHF   =         0.00000000
  -V(xc)+E(xc)   XCENC  =      1098.56466870
  PAW double counting   =     60249.68041034   -59698.37181533
  entropy T*S    EENTRO =         0.00000000
  eigenvalues    EBANDS =     -2295.61798189
  atomic energy  EATOM  =     44156.17162135
  ---------------------------------------------------
  free energy    TOTEN  =      -210.43560581 eV

  energy without entropy =     -210.43560581  energy(sigma->0) =     -210.43560581


--------------------------------------------------------------------------------------------------------




----------------------------------------- Iteration    1(  16)  ---------------------------------------


    POTLOK:  cpu time    2.71: real time    2.71
    SETDIJ:  cpu time    0.09: real time    0.09
     EDDAV:  cpu time  795.77: real time  797.33
 BZINTS: Fermi energy:  5.178682;489.000000 electrons
         Band energy:***********;  BLOECHL correction:  0.000000
       DOS:  cpu time    0.08: real time    0.08
    CHARGE:  cpu time   25.10: real time   25.17
    MIXING:  cpu time    0.09: real time    0.09
    --------------------------------------------
      LOOP:  cpu time  823.84: real time  825.49

 eigenvalue-minimisations  :  6792
 total energy-change (2. order) :-0.2700287E-04  (-0.3895182E-05)
 number of electron     488.9999990 magnetization 
 augmentation part      134.5245635 magnetization 

 Broyden mixing:
  rms(total) = 0.57051E-03    rms(broyden)= 0.57051E-03
  rms(prec ) = 0.69748E-03
  weight for this iteration     100.00

 eigenvalues of (default mixing * dielectric matrix)
  average eigenvalue GAMMA=   1.5579
  3.3270  2.3861  2.3861  1.4395  1.4395  1.0265  1.0265  1.2530  1.1917  0.8306
  0.8306

 Free energy of the ion-electron system (eV)
  ---------------------------------------------------
  alpha Z        PSCENC =      1241.77088299
  Ewald energy   TEWEN  =    -31091.83833514
  -Hartree energ DENC   =    -13871.00327872
  -exchange      EXHF   =         0.00000000
  -V(xc)+E(xc)   XCENC  =      1098.56895006
  PAW double counting   =     60249.63379988   -59698.34150611
  entropy T*S    EENTRO =         0.00000000
  eigenvalues    EBANDS =     -2295.39776712
  atomic energy  EATOM  =     44156.17162135
  ---------------------------------------------------
  free energy    TOTEN  =      -210.43563281 eV

  energy without entropy =     -210.43563281  energy(sigma->0) =     -210.43563281


--------------------------------------------------------------------------------------------------------




----------------------------------------- Iteration    1(  17)  ---------------------------------------


    POTLOK:  cpu time    2.34: real time    2.34
    SETDIJ:  cpu time    0.10: real time    0.10
     EDDAV:  cpu time  767.32: real time  768.97
 BZINTS: Fermi energy:  5.178727;489.000000 electrons
         Band energy:***********;  BLOECHL correction:  0.000000
       DOS:  cpu time    0.08: real time    0.08
    --------------------------------------------
      LOOP:  cpu time  769.84: real time  771.51

 eigenvalue-minimisations  :  6216
 total energy-change (2. order) :-0.1610882E-05  (-0.6519190E-06)
 number of electron     488.9999990 magnetization 
 augmentation part      134.5245635 magnetization 

 Free energy of the ion-electron system (eV)
  ---------------------------------------------------
  alpha Z        PSCENC =      1241.77088299
  Ewald energy   TEWEN  =    -31091.83833514
  -Hartree energ DENC   =    -13871.03137681
  -exchange      EXHF   =         0.00000000
  -V(xc)+E(xc)   XCENC  =      1098.56888916
  PAW double counting   =     60247.64674062   -59696.35507052
  entropy T*S    EENTRO =         0.00000000
  eigenvalues    EBANDS =     -2295.36898608
  atomic energy  EATOM  =     44156.17162135
  ---------------------------------------------------
  free energy    TOTEN  =      -210.43563442 eV

  energy without entropy =     -210.43563442  energy(sigma->0) =     -210.43563442


--------------------------------------------------------------------------------------------------------




 average (electrostatic) potential at core
  the test charge radii are     1.0698  1.0774  0.9698
  (the norm of the test charge is              1.0000)
       1 -37.3693       2 -37.3693       3 -37.6910       4 -37.3688       5 -37.3868
       6 -37.3873       7 -37.3879       8 -37.3719       9 -96.9998      10 -96.9802
      11 -96.9360      12 -97.1831      13 -96.9803      14 -97.1833      15 -96.9370
      16 -96.9985      17 -97.1811      18 -96.9816      19 -96.9362      20 -96.9813
      21 -96.9999      22 -96.9806      23 -96.9818      24 -97.0463      25 -87.1111
      26 -87.1463      27 -87.0610      28 -87.0787      29 -87.0584      30 -87.0327
      31 -87.1400      32 -87.3316      33 -87.0573      34 -87.3316      35 -87.1413
      36 -87.1477      37 -87.0787      38 -87.0614      39 -87.1140      40 -87.0793
      41 -87.1477      42 -87.3321      43 -87.0343      44 -87.0587      45 -87.1418
      46 -87.0597      47 -87.0622      48 -87.1453      49 -87.1110      50 -87.1472
      51 -87.0323      52 -87.0561      53 -87.0589      54 -87.1453      55 -87.0308
 
 
 
 E-fermi :   5.1787     XC(G=0):  -9.2415     alpha+bet : -9.6500


 k-point     1 :       0.0000    0.0000    0.0000
  band No.  band energies     occupation 
      1     -10.7904      2.00000
      2     -10.7900      2.00000
      3     -10.7742      2.00000
      4     -10.7048      2.00000
      5     -10.7041      2.00000
      6     -10.6494      2.00000
      7     -10.6474      2.00000
      8     -10.6468      2.00000
      9     -10.6095      2.00000
     10     -10.5804      2.00000
     11     -10.5801      2.00000
     12     -10.5416      2.00000
     13     -10.5382      2.00000
     14     -10.5379      2.00000
     15     -10.5207      2.00000
     16     -10.4748      2.00000
     17     -10.4708      2.00000
     18     -10.4590      2.00000
     19     -10.4588      2.00000
     20     -10.4163      2.00000
     21     -10.4155      2.00000
     22     -10.3933      2.00000
     23     -10.3930      2.00000
     24     -10.3829      2.00000
     25     -10.3825      2.00000
     26     -10.3820      2.00000
     27     -10.3761      2.00000
     28     -10.3559      2.00000
     29     -10.3531      2.00000
     30     -10.3521      2.00000
     31     -10.3268      2.00000
     32     -10.3264      2.00000
     33     -10.2980      2.00000
     34     -10.2871      2.00000
     35     -10.2823      2.00000
     36     -10.2822      2.00000
     37     -10.2785      2.00000
     38     -10.2783      2.00000
     39     -10.2612      2.00000
     40     -10.2559      2.00000
     41     -10.2424      2.00000
     42     -10.2422      2.00000
     43     -10.2323      2.00000
     44     -10.2318      2.00000
     45     -10.2314      2.00000
     46     -10.2229      2.00000
     47     -10.2227      2.00000
     48     -10.2087      2.00000
     49     -10.2084      2.00000
     50     -10.1963      2.00000
     51     -10.1958      2.00000
     52     -10.1956      2.00000
     53     -10.1882      2.00000
     54     -10.1839      2.00000
     55     -10.1820      2.00000
     56     -10.1813      2.00000
     57     -10.1723      2.00000
     58     -10.1721      2.00000
     59     -10.1718      2.00000
     60     -10.1699      2.00000
     61     -10.1694      2.00000
     62     -10.1591      2.00000
     63     -10.1578      2.00000
     64     -10.1574      2.00000
     65     -10.1574      2.00000
     66     -10.1498      2.00000
     67     -10.1496      2.00000
     68     -10.1493      2.00000
     69     -10.1453      2.00000
     70     -10.1407      2.00000
     71     -10.1298      2.00000
     72     -10.1292      2.00000
     73     -10.1256      2.00000
     74     -10.1254      2.00000
     75     -10.1177      2.00000
     76     -10.1131      2.00000
     77     -10.1127      2.00000
     78     -10.0945      2.00000
     79     -10.0941      2.00000
     80     -10.0861      2.00000
     81      -9.4205      2.00000
     82      -8.9789      2.00000
     83      -8.9785      2.00000
     84      -8.9454      2.00000
     85      -8.9448      2.00000
     86      -8.9364      2.00000
     87      -8.8933      2.00000
     88      -8.5106      2.00000
     89      -8.3260      2.00000
     90      -8.3258      2.00000
     91      -8.2255      2.00000
     92      -8.2249      2.00000
     93      -8.2085      2.00000
     94      -8.1616      2.00000
     95      -8.1606      2.00000
     96      -8.1573      2.00000
     97      -8.1446      2.00000
     98      -7.9709      2.00000
     99      -7.9698      2.00000
    100      -7.9576      2.00000
    101      -7.9452      2.00000
    102      -7.9447      2.00000
    103      -7.7328      2.00000
    104      -7.5916      2.00000
    105      -7.5913      2.00000
    106      -7.5649      2.00000
    107      -7.5643      2.00000
    108      -7.5481      2.00000
    109      -7.4856      2.00000
    110      -7.4854      2.00000
    111      -7.4630      2.00000
    112      -4.3997      2.00000
    113      -4.3995      2.00000
    114      -4.3977      2.00000
    115      -4.3422      2.00000
    116      -4.3420      2.00000
    117      -4.2237      2.00000
    118      -4.2236      2.00000
    119      -4.2150      2.00000
    120      -4.1589      2.00000
    121      -4.1557      2.00000
    122      -4.1555      2.00000
    123      -4.1196      2.00000
    124      -4.1195      2.00000
    125      -4.1184      2.00000
    126      -4.0882      2.00000
    127      -4.0665      2.00000
    128      -4.0662      2.00000
    129      -4.0498      2.00000
    130      -4.0492      2.00000
    131      -4.0491      2.00000
    132      -4.0373      2.00000
    133      -4.0371      2.00000
    134      -4.0366      2.00000
    135      -4.0364      2.00000
    136      -4.0356      2.00000
    137      -4.0355      2.00000
    138      -4.0226      2.00000
    139      -4.0226      2.00000
    140      -4.0138      2.00000
    141      -4.0133      2.00000
    142      -4.0132      2.00000
    143      -4.0122      2.00000
    144      -4.0057      2.00000
    145      -4.0054      2.00000
    146      -4.0028      2.00000
    147      -4.0027      2.00000
    148      -4.0023      2.00000
    149      -3.9945      2.00000
    150      -3.9939      2.00000
    151      -3.9937      2.00000
    152      -2.1238      2.00000
    153      -2.0700      2.00000
    154      -1.9947      2.00000
    155      -1.9943      2.00000
    156      -1.6393      2.00000
    157      -1.6391      2.00000
    158      -1.6126      2.00000
    159      -1.5706      2.00000
    160      -1.5190      2.00000
    161      -1.5180      2.00000
    162      -1.4890      2.00000
    163      -1.2734      2.00000
    164      -1.1994      2.00000
    165      -1.1991      2.00000
    166      -1.1497      2.00000
    167      -1.1491      2.00000
    168      -1.0701      2.00000
    169      -0.3292      2.00000
    170      -0.3291      2.00000
    171      -0.2873      2.00000
    172      -0.2670      2.00000
    173      -0.2668      2.00000
    174      -0.2307      2.00000
    175      -0.2304      2.00000
    176       0.0269      2.00000
    177       0.3372      2.00000
    178       0.3896      2.00000
    179       0.3902      2.00000
    180       0.4452      2.00000
    181       0.4863      2.00000
    182       0.4874      2.00000
    183       0.5614      2.00000
    184       0.7193      2.00000
    185       0.7198      2.00000
    186       0.7400      2.00000
    187       0.7403      2.00000
    188       0.7571      2.00000
    189       0.9192      2.00000
    190       0.9207      2.00000
    191       0.9211      2.00000
    192       0.9582      2.00000
    193       1.0100      2.00000
    194       1.0112      2.00000
    195       1.0113      2.00000
    196       1.0369      2.00000
    197       1.0377      2.00000
    198       1.0470      2.00000
    199       1.0903      2.00000
    200       1.0906      2.00000
    201       1.2102      2.00000
    202       1.2902      2.00000
    203       1.2904      2.00000
    204       1.4921      2.00000
    205       1.5593      2.00000
    206       1.5596      2.00000
    207       1.6585      2.00000
    208       1.6593      2.00000
    209       1.6791      2.00000
    210       1.7531      2.00000
    211       1.7534      2.00000
    212       1.8940      2.00000
    213       1.8945      2.00000
    214       1.9280      2.00000
    215       1.9287      2.00000
    216       1.9829      2.00000
    217       2.0881      2.00000
    218       2.0883      2.00000
    219       2.2265      2.00000
    220       2.2632      2.00000
    221       2.2667      2.00000
    222       2.2672      2.00000
    223       2.4889      2.00000
    224       2.4901      2.00000
    225       2.6981      2.00000
    226       2.6983      2.00000
    227       2.7453      2.00000
    228       2.7457      2.00000
    229       2.7563      2.00000
    230       2.7805      2.00000
    231       2.8025      2.00000
    232       2.8242      2.00000
    233       2.8245      2.00000
    234       2.8515      2.00000
    235       2.8520      2.00000
    236       2.9606      2.00000
    237       2.9608      2.00000
    238       2.9810      2.00000
    239       3.0124      2.00000
    240       3.0128      2.00000
    241       3.0361      2.00000
    242       3.0658      2.00000
    243       3.0659      2.00000
    244       3.0698      2.00000
    245       4.0782      1.98291
    246       4.9168      1.17853
    247       5.2094      0.00000
    248       5.2099      0.00000
    249       5.5155      0.00000
    250       5.9574      0.00000
    251       6.1132      0.00000
    252       6.1143      0.00000
    253       6.2171      0.00000
    254       6.3077      0.00000
    255       6.3093      0.00000
    256       6.4183      0.00000
    257       6.5011      0.00000
    258       6.5014      0.00000
    259       6.6070      0.00000
    260       6.6251      0.00000
    261       6.6272      0.00000
    262       6.9559      0.00000
    263       7.0061      0.00000
    264       7.3611      0.00000
    265       7.4765      0.00000
    266       7.4768      0.00000
    267       7.5753      0.00000
    268       7.5945      0.00000
    269       7.5950      0.00000
    270       7.6602      0.00000
    271       7.6606      0.00000
    272       8.1276      0.00000
    273       8.2460      0.00000
[...]
  6        0.416   0.284   9.561  10.260
  7        0.416   0.284   9.561  10.260
  8        0.417   0.287   9.559  10.263
  9        0.735   0.580   9.944  11.259
 10        0.725   0.591   9.948  11.264
 11        0.724   0.591   9.948  11.263
 12        0.764   0.606   9.935  11.305
 13        0.725   0.590   9.948  11.264
 14        0.764   0.606   9.935  11.305
 15        0.724   0.590   9.948  11.262
 16        0.735   0.580   9.944  11.259
 17        0.764   0.606   9.935  11.305
 18        0.725   0.590   9.948  11.264
 19        0.724   0.590   9.948  11.262
 20        0.725   0.590   9.948  11.264
 21        0.735   0.580   9.944  11.259
 22        0.725   0.591   9.948  11.264
 23        0.725   0.590   9.948  11.264
 24        0.732   0.580   9.943  11.256
 25        1.341   2.378   0.000   3.719
 26        1.343   2.367   0.000   3.710
 27        1.340   2.374   0.000   3.715
 28        1.341   2.373   0.000   3.714
 29        1.341   2.372   0.000   3.714
 30        1.341   2.372   0.000   3.712
 31        1.342   2.382   0.000   3.724
 32        1.346   2.359   0.000   3.706
 33        1.341   2.373   0.000   3.714
 34        1.346   2.359   0.000   3.706
 35        1.342   2.382   0.000   3.724
 36        1.343   2.367   0.000   3.710
 37        1.341   2.373   0.000   3.714
 38        1.340   2.375   0.000   3.715
 39        1.341   2.378   0.000   3.719
 40        1.341   2.373   0.000   3.714
 41        1.343   2.367   0.000   3.710
 42        1.346   2.359   0.000   3.706
 43        1.341   2.372   0.000   3.712
 44        1.341   2.372   0.000   3.714
 45        1.342   2.382   0.000   3.724
 46        1.341   2.372   0.000   3.714
 47        1.340   2.375   0.000   3.715
 48        1.343   2.367   0.000   3.710
 49        1.341   2.378   0.000   3.719
 50        1.343   2.367   0.000   3.710
 51        1.341   2.372   0.000   3.712
 52        1.341   2.372   0.000   3.714
 53        1.341   2.372   0.000   3.714
 54        1.343   2.367   0.000   3.710
 55        1.339   2.378   0.000   3.718
------------------------------------------------
tot       56.726  85.230 235.585 377.541
 
    CHARGE:  cpu time   27.67: real time   27.79
    FORLOC:  cpu time    0.71: real time    0.71
    FORNL :  cpu time  310.44: real time  311.07
    FORCOR:  cpu time    3.00: real time    3.00
    FORHAR:  cpu time    1.37: real time    1.37
    MIXING:  cpu time    0.07: real time    0.07
    OFIELD:  cpu time    0.00: real time    0.00

 VOLUME and BASIS-vectors are now :
 -----------------------------------------------------------------------------
  energy-cutoff  :      600.00
  volume of cell :     1339.13
      direct lattice vectors                 reciprocal lattice vectors
    11.022353692  0.000000000  0.000000000     0.090724724  0.000000000  0.000000000
     0.000000000 11.022353692  0.000000000     0.000000000  0.090724724  0.000000000
     0.000000000  0.000000000 11.022353692     0.000000000  0.000000000  0.090724724

  length of vectors
    11.022353692 11.022353692 11.022353692     0.090724724  0.090724724  0.090724724


 FORCES acting on ions
    electron-ion (+dipol)            ewald-force                    non-local-force                 convergence-correction
 -----------------------------------------------------------------------------------------------
   -.200E+02 -.201E+02 0.227E+02   0.197E+02 0.198E+02 -.223E+02   0.299E+00 0.290E+00 -.363E+00   0.235E-03 0.243E-03 -.537E-04
   -.200E+02 0.226E+02 -.200E+02   0.197E+02 -.222E+02 0.198E+02   0.293E+00 -.357E+00 0.281E+00   0.236E-03 -.717E-04 0.239E-03
   0.135E+03 0.136E+03 0.136E+03   -.135E+03 -.135E+03 -.135E+03   -.543E-01 -.485E-01 -.591E-01   -.228E-02 -.229E-02 -.230E-02
   0.225E+02 -.200E+02 -.202E+02   -.222E+02 0.197E+02 0.199E+02   -.352E+00 0.291E+00 0.288E+00   -.711E-04 0.239E-03 0.251E-03
   0.530E+02 -.306E+02 -.308E+02   -.529E+02 0.305E+02 0.307E+02   -.817E-01 0.104E+00 0.115E+00   -.189E-02 0.107E-02 0.107E-02
   -.307E+02 -.307E+02 0.532E+02   0.306E+02 0.306E+02 -.531E+02   0.103E+00 0.109E+00 -.793E-01   0.106E-02 0.106E-02 -.189E-02
   -.306E+02 0.530E+02 -.307E+02   0.305E+02 -.529E+02 0.306E+02   0.109E+00 -.851E-01 0.116E+00   0.109E-02 -.188E-02 0.108E-02
   -.135E+02 -.135E+02 -.135E+02   0.137E+02 0.137E+02 0.136E+02   -.154E+00 -.154E+00 -.144E+00   -.720E-03 -.695E-03 -.726E-03
   0.412E+02 0.413E+02 -.538E+02   -.409E+02 -.411E+02 0.530E+02   -.219E+00 -.219E+00 0.790E+00   -.120E-02 -.119E-02 0.119E-02
   0.127E+02 -.228E+02 0.217E+02   -.129E+02 0.226E+02 -.212E+02   0.210E+00 0.274E+00 -.516E+00   0.430E-03 -.431E-03 -.690E-03
   -.417E+01 -.126E+02 -.410E+01   0.416E+01 0.126E+02 0.408E+01   0.672E-02 0.414E-01 0.816E-02   -.303E-03 0.371E-03 -.318E-03
   -.206E+03 0.305E+02 0.304E+02   0.204E+03 -.303E+02 -.302E+02   0.185E+01 -.181E+00 -.183E+00   0.304E-02 0.410E-03 0.439E-03
   -.227E+02 0.125E+02 0.217E+02   0.224E+02 -.127E+02 -.212E+02   0.272E+00 0.215E+00 -.515E+00   -.422E-03 0.411E-03 -.704E-03
   0.304E+02 -.206E+03 0.305E+02   -.302E+02 0.204E+03 -.303E+02   -.190E+00 0.183E+01 -.186E+00   0.429E-03 0.302E-02 0.430E-03
   -.124E+02 -.427E+01 -.429E+01   0.124E+02 0.424E+01 0.427E+01   0.561E-01 0.252E-01 0.215E-01   0.375E-03 -.292E-03 -.303E-03
   0.413E+02 -.535E+02 0.415E+02   -.410E+02 0.527E+02 -.413E+02   -.225E+00 0.781E+00 -.218E+00   -.118E-02 0.117E-02 -.120E-02
   0.306E+02 0.303E+02 -.206E+03   -.304E+02 -.301E+02 0.204E+03   -.187E+00 -.183E+00 0.183E+01   0.427E-03 0.421E-03 0.306E-02
   -.231E+02 0.215E+02 0.128E+02   0.228E+02 -.210E+02 -.130E+02   0.275E+00 -.529E+00 0.203E+00   -.428E-03 -.679E-03 0.438E-03
   -.422E+01 -.431E+01 -.128E+02   0.419E+01 0.428E+01 0.128E+02   0.283E-01 0.314E-01 0.760E-01   -.300E-03 -.300E-03 0.368E-03
   0.127E+02 0.215E+02 -.228E+02   -.129E+02 -.210E+02 0.225E+02   0.203E+00 -.527E+00 0.269E+00   0.434E-03 -.677E-03 -.438E-03
   -.535E+02 0.414E+02 0.414E+02   0.527E+02 -.412E+02 -.412E+02   0.782E+00 -.219E+00 -.225E+00   0.119E-02 -.119E-02 -.121E-02
   0.216E+02 0.126E+02 -.228E+02   -.211E+02 -.128E+02 0.226E+02   -.504E+00 0.226E+00 0.280E+00   -.687E-03 0.417E-03 -.431E-03
   0.215E+02 -.228E+02 0.127E+02   -.210E+02 0.225E+02 -.128E+02   -.518E+00 0.285E+00 0.205E+00   -.696E-03 -.433E-03 0.440E-03
   -.453E+02 -.450E+02 -.455E+02   0.449E+02 0.446E+02 0.451E+02   0.425E+00 0.425E+00 0.422E+00   0.996E-03 0.999E-03 0.994E-03
   0.573E+02 0.569E+02 0.875E+02   -.563E+02 -.559E+02 -.883E+02   -.105E+01 -.107E+01 0.768E+00   -.112E-03 -.106E-03 -.704E-03
   -.219E+02 -.112E+03 0.533E+02   0.214E+02 0.112E+03 -.523E+02   0.504E+00 0.391E+00 -.923E+00   -.602E-03 0.150E-02 -.122E-03
   -.667E+02 0.497E+02 -.668E+02   0.659E+02 -.489E+02 0.661E+02   0.807E+00 -.713E+00 0.805E+00   0.517E-03 -.424E-03 0.515E-03
   0.414E+02 -.488E+02 -.489E+02   -.410E+02 0.482E+02 0.482E+02   -.360E+00 0.646E+00 0.641E+00   -.511E-03 -.145E-05 -.499E-05
   0.503E+02 0.691E+02 -.536E+02   -.497E+02 -.684E+02 0.529E+02   -.673E+00 -.725E+00 0.737E+00   0.221E-05 -.532E-03 0.828E-04
   -.657E+02 -.660E+02 -.545E+02   0.652E+02 0.655E+02 0.537E+02   0.488E+00 0.480E+00 0.792E+00   0.971E-04 0.107E-03 0.459E-03
   0.105E+03 -.846E+01 0.105E+03   -.104E+03 0.665E+01 -.104E+03   -.682E+00 0.180E+01 -.684E+00   -.140E-02 0.563E-03 -.141E-02
   -.562E+02 0.896E+01 0.887E+01   0.554E+02 -.880E+01 -.871E+01   0.802E+00 -.189E+00 -.178E+00   0.513E-03 0.659E-03 0.679E-03
   0.689E+02 0.507E+02 -.535E+02   -.682E+02 -.501E+02 0.528E+02   -.737E+00 -.659E+00 0.737E+00   -.532E-03 -.575E-05 0.768E-04
   0.899E+01 -.562E+02 0.888E+01   -.882E+01 0.554E+02 -.871E+01   -.181E+00 0.803E+00 -.182E+00   0.665E-03 0.504E-03 0.679E-03
   -.841E+01 0.105E+03 0.105E+03   0.660E+01 -.104E+03 -.104E+03   0.180E+01 -.681E+00 -.686E+00   0.570E-03 -.141E-02 -.140E-02
   -.113E+03 -.215E+02 0.532E+02   0.112E+03 0.210E+02 -.522E+02   0.370E+00 0.517E+00 -.919E+00   0.151E-02 -.604E-03 -.121E-03
   -.489E+02 0.413E+02 -.489E+02   0.483E+02 -.409E+02 0.483E+02   0.653E+00 -.370E+00 0.641E+00   0.823E-05 -.507E-03 -.101E-06
   0.497E+02 -.666E+02 -.671E+02   -.490E+02 0.658E+02 0.664E+02   -.712E+00 0.809E+00 0.801E+00   -.424E-03 0.517E-03 0.520E-03
   0.572E+02 0.874E+02 0.573E+02   -.561E+02 -.881E+02 -.562E+02   -.106E+01 0.763E+00 -.106E+01   -.113E-03 -.694E-03 -.116E-03
   -.490E+02 -.487E+02 0.415E+02   0.484E+02 0.481E+02 -.411E+02   0.646E+00 0.660E+00 -.362E+00   -.517E-05 0.774E-05 -.510E-03
   -.113E+03 0.532E+02 -.216E+02   0.112E+03 -.523E+02 0.211E+02   0.380E+00 -.921E+00 0.512E+00   0.150E-02 -.135E-03 -.608E-03
   0.892E+01 0.898E+01 -.563E+02   -.875E+01 -.882E+01 0.555E+02   -.191E+00 -.180E+00 0.805E+00   0.671E-03 0.679E-03 0.518E-03
   -.656E+02 -.552E+02 -.657E+02   0.651E+02 0.545E+02 0.652E+02   0.494E+00 0.769E+00 0.484E+00   0.105E-03 0.450E-03 0.955E-04
   0.691E+02 -.537E+02 0.503E+02   -.684E+02 0.530E+02 -.496E+02   -.726E+00 0.732E+00 -.669E+00   -.542E-03 0.870E-04 0.406E-05
   0.105E+03 0.105E+03 -.835E+01   -.104E+03 -.104E+03 0.654E+01   -.698E+00 -.665E+00 0.180E+01   -.142E-02 -.140E-02 0.566E-03
   0.506E+02 -.536E+02 0.692E+02   -.500E+02 0.529E+02 -.685E+02   -.666E+00 0.734E+00 -.724E+00   -.747E-05 0.906E-04 -.541E-03
   -.670E+02 -.667E+02 0.497E+02   0.662E+02 0.659E+02 -.490E+02   0.802E+00 0.810E+00 -.716E+00   0.520E-03 0.516E-03 -.426E-03
   -.217E+02 0.531E+02 -.113E+03   0.211E+02 -.522E+02 0.112E+03   0.516E+00 -.919E+00 0.374E+00   -.595E-03 -.127E-03 0.151E-02
   0.875E+02 0.571E+02 0.571E+02   -.883E+02 -.560E+02 -.561E+02   0.771E+00 -.106E+01 -.106E+01   -.689E-03 -.115E-03 -.104E-03
   0.533E+02 -.217E+02 -.113E+03   -.523E+02 0.212E+02 0.112E+03   -.918E+00 0.517E+00 0.376E+00   -.124E-03 -.589E-03 0.151E-02
   -.548E+02 -.659E+02 -.657E+02   0.540E+02 0.654E+02 0.652E+02   0.781E+00 0.475E+00 0.495E+00   0.450E-03 0.102E-03 0.101E-03
   -.535E+02 0.505E+02 0.690E+02   0.528E+02 -.499E+02 -.683E+02   0.737E+00 -.666E+00 -.732E+00   0.837E-04 -.418E-06 -.538E-03
   -.535E+02 0.691E+02 0.502E+02   0.528E+02 -.684E+02 -.496E+02   0.737E+00 -.722E+00 -.673E+00   0.827E-04 -.536E-03 -.271E-07
   0.532E+02 -.113E+03 -.216E+02   -.522E+02 0.112E+03 0.211E+02   -.922E+00 0.384E+00 0.510E+00   -.125E-03 0.151E-02 -.607E-03
   0.527E+02 0.526E+02 0.529E+02   -.519E+02 -.517E+02 -.521E+02   -.839E+00 -.862E+00 -.831E+00   -.409E-03 -.403E-03 -.417E-03
 -----------------------------------------------------------------------------------------------
   -.330E+01 -.331E+01 -.331E+01   0.213E-13 0.711E-14 0.426E-13   0.330E+01 0.331E+01 0.331E+01   -.568E-03 -.593E-03 -.581E-03
 
 
 POSITION                                       TOTAL-FORCE (eV/Angst)
 -----------------------------------------------------------------------------------
      0.02944      0.03049      0.04072        -0.004052     -0.004987     -0.016518
      0.03036      5.55299      5.54151        -0.004948     -0.020106     -0.003820
      5.99689      5.99689      0.48574        -0.014294     -0.015353     -0.013851
      5.55200      0.03011      5.54115        -0.017663     -0.004369     -0.003738
      8.19540      2.69448      8.20627         0.000684      0.016282      0.016789
      2.69458      2.69471      2.68415         0.016990      0.017044     -0.000137
      2.69461      8.19589      8.20541         0.016930     -0.000188      0.013434
      8.30006      8.30125      2.79012        -0.005095     -0.002941     -0.004258
      6.89072      6.89037      6.82295         0.001529     -0.000974     -0.014142
      4.12710      9.64213      1.42669         0.018228      0.017231      0.000523
      9.65223      1.38495      4.14094        -0.005710      0.000990     -0.006210
      1.04324      4.10552      9.61757         0.007772     -0.009932     -0.009477
      9.64246      4.12842      1.42886         0.011868      0.015021     -0.005324
      4.10737      1.04368      9.61704        -0.008822      0.008306     -0.008581
      1.38165      9.65063      4.13853         0.005205      0.001316      0.003491
      6.89081      1.31228      1.37971         0.000176     -0.015295      0.000828
      4.10569      4.10640      6.55447        -0.009608     -0.009058      0.008854
      9.64402      6.94023      9.63996         0.016115     -0.006472      0.014723
      9.64987      9.64991      6.89107         0.003493      0.004154      0.010750
      4.12883      6.94077      4.13167         0.014586     -0.004809      0.013399
      1.31235      6.89071      1.37968        -0.016052     -0.000047      0.000477
      6.93788      4.12633      4.13167        -0.002848      0.018137      0.017046
      6.93904      9.63990      9.63977        -0.000684      0.019271      0.016252
      1.37744      1.37707      6.88866         0.016039      0.013802      0.016245
      4.24690      4.24750      4.04985        -0.000927      0.002069      0.005115
      6.71927      1.26429      9.74613         0.001195      0.003828      0.012334
      1.27516      9.76182      6.78538         0.003932      0.006774      0.007611
      9.71318      6.77728      1.26612         0.004106     -0.005370     -0.005065
      1.49456      7.00565      4.01703        -0.034559     -0.031180      0.035660
      9.57846      9.57815      9.54636        -0.011830     -0.010137     -0.004714
      7.01809      3.99427      1.50768         0.016617     -0.007641      0.013640
      4.04941      1.54460      7.05520        -0.012724     -0.018582     -0.014143
      7.00583      1.49422      4.01713        -0.030980     -0.037971      0.036867
      1.54410      4.04938      7.05570        -0.016246     -0.012525     -0.015984
      3.99440      7.01798      1.50756        -0.007858      0.015944      0.014189
      1.26721      6.71793      9.74534        -0.000665      0.000624      0.018222
      6.77524      9.71360      1.26560         0.001517     -0.002911     -0.002999
      9.76261      1.27538      6.78663         0.004322      0.004858      0.010777
      4.24726      9.56098      9.75791         0.001778      0.005257      0.000326
      6.77688      6.77507      4.20253        -0.001607      0.001777     -0.001076
      1.26475      4.23453      1.20777         0.007251      0.014200      0.001173
      1.54527      1.54375      9.56043        -0.017819     -0.014151     -0.012683
      9.57763      4.03563      4.06813        -0.009122      0.004723     -0.012196
      7.00543      9.52827      7.00580        -0.034091      0.034119     -0.036188
      7.01970      7.01584      9.50487         0.012442      0.021662     -0.004961
      1.49436      9.52828      1.49414        -0.039082      0.036308     -0.035556
      1.27543      1.27544      4.25141         0.009748      0.006940      0.003758
      6.71790      4.23346      6.77754         0.002111      0.018337      0.002263
      9.56112      4.24747      9.75865         0.006953      0.003109      0.002175
      4.23454      6.71901      6.77590         0.013650      0.002679      0.008769
      4.03531      9.57946      4.06616        -0.002128     -0.013385     -0.010127
      9.52820      1.49453      1.49454         0.036505     -0.033665     -0.029905
      9.52821      7.00565      7.00571         0.036821     -0.033137     -0.035981
      4.23401      1.26545      1.20747         0.016679      0.005395     -0.001244
      9.76427      9.76774      4.25256         0.004173     -0.004969      0.003186
 -----------------------------------------------------------------------------------
    total drift:                               -0.000900     -0.000860     -0.000886


--------------------------------------------------------------------------------------------------------



  FREE ENERGIE OF THE ION-ELECTRON SYSTEM (eV)
  ---------------------------------------------------
  free  energy   TOTEN  =      -210.43563442 eV

  energy  without entropy=     -210.43563442  energy(sigma->0) =     -210.43563442
 


--------------------------------------------------------------------------------------------------------


    POTLOK:  cpu time    2.64: real time    2.64


--------------------------------------------------------------------------------------------------------


 writing wavefunctions
     LOOP+:  cpu time18547.00: real time18603.16
    4ORBIT:  cpu time    0.00: real time    0.00
 


 total charge     
 
# of ion     s       p       d       tot
----------------------------------------
  1        0.417   0.276   9.559  10.253
  2        0.417   0.276   9.559  10.253
  3        0.461   0.280   9.551  10.291
  4        0.417   0.276   9.559  10.253
  5        0.416   0.284   9.561  10.260
  6        0.416   0.284   9.561  10.260
  7        0.416   0.284   9.561  10.260
  8        0.417   0.287   9.559  10.263
  9        0.735   0.580   9.944  11.259
 10        0.725   0.591   9.948  11.264
 11        0.724   0.591   9.948  11.263
 12        0.764   0.606   9.935  11.305
 13        0.725   0.590   9.948  11.264
 14        0.764   0.606   9.935  11.305
 15        0.724   0.590   9.948  11.262
 16        0.735   0.580   9.944  11.259
 17        0.764   0.606   9.935  11.305
 18        0.725   0.590   9.948  11.264
 19        0.724   0.590   9.948  11.262
 20        0.725   0.590   9.948  11.264
 21        0.735   0.580   9.944  11.259
 22        0.725   0.591   9.948  11.264
 23        0.725   0.590   9.948  11.264
 24        0.732   0.580   9.943  11.256
 25        1.341   2.378   0.000   3.719
 26        1.343   2.367   0.000   3.710
 27        1.340   2.374   0.000   3.715
 28        1.341   2.373   0.000   3.714
 29        1.341   2.372   0.000   3.714
 30        1.341   2.372   0.000   3.712
 31        1.342   2.382   0.000   3.724
 32        1.346   2.359   0.000   3.706
 33        1.341   2.373   0.000   3.714
 34        1.346   2.359   0.000   3.706
 35        1.342   2.382   0.000   3.724
 36        1.343   2.367   0.000   3.710
 37        1.341   2.373   0.000   3.714
 38        1.340   2.375   0.000   3.715
 39        1.341   2.378   0.000   3.719
 40        1.341   2.373   0.000   3.714
 41        1.343   2.367   0.000   3.710
 42        1.346   2.359   0.000   3.706
 43        1.341   2.372   0.000   3.712
 44        1.341   2.372   0.000   3.714
 45        1.342   2.382   0.000   3.724
 46        1.341   2.372   0.000   3.714
 47        1.340   2.375   0.000   3.715
 48        1.343   2.367   0.000   3.710
 49        1.341   2.378   0.000   3.719
 50        1.343   2.367   0.000   3.710
 51        1.341   2.372   0.000   3.712
 52        1.341   2.372   0.000   3.714
 53        1.341   2.372   0.000   3.714
 54        1.343   2.367   0.000   3.710
 55        1.339   2.378   0.000   3.718
------------------------------------------------
tot       56.726  85.230 235.585 377.541
 
 BZINTS: Fermi energy:  5.178727;489.000000 electrons
         Band energy:***********;  BLOECHL correction:  0.000000

 total amount of memory used by VASP on root node   660661. kBytes
========================================================================

   base      :      30000. kBytes
   nonl-proj :     154993. kBytes
   fftplans  :      35958. kBytes
   grid      :      62735. kBytes
   one-center:        435. kBytes
   wavefun   :     376540. kBytes
 
  
  
 General timing and accounting informations for this job:
 ========================================================
  
                  Total CPU time used (sec):    18696.596
                            User time (sec):    18620.952
                          System time (sec):       75.645
                         Elapsed time (sec):    18756.459
  
                   Maximum memory used (kb):      659296.
                   Average memory used (kb):           0.
  
                          Minor page faults:     24038045
                          Major page faults:            6
                 Voluntary context switches:        60964
