 vasp.5.4.1 05Feb16 (build Nov 25 2016 15:25:20) complex                        
  
 executed on           IFC91_ompi date 2016.12.14  10:19:08
 running on   64 total cores
 distrk:  each k-point on   64 cores,    1 groups
 distr:  one band on NCORES_PER_BAND=   8 cores,    8 groups


--------------------------------------------------------------------------------------------------------


 INCAR:
 POTCAR:    PAW_PBE Ni_pv 06Sep2000               
 POTCAR:    PAW_PBE C 08Apr2002                   
 POTCAR:    PAW_PBE N 08Apr2002                   
 POTCAR:    PAW_PBE Ni_pv 06Sep2000               
   VRHFIN =Ni:                                                                  
   LEXCH  = PE                                                                  
   EATOM  =  3501.1230 eV,  257.3253 Ry                                         
                                                                                
   TITEL  = PAW_PBE Ni_pv 06Sep2000                                             
   LULTRA =        F    use ultrasoft PP ?                                      
   IUNSCR =        1    unscreen: 0-lin 1-nonlin 2-no                           
   RPACOR =    1.500    partial core radius                                     
   POMASS =   58.690; ZVAL   =   16.000    mass and valenz                      
   RCORE  =    2.000    outmost cutoff radius                                   
   RWIGS  =    2.000; RWIGS  =    1.058    wigner-seitz radius (au A)           
   ENMAX  =  367.986; ENMIN  =  275.989 eV                                      
   RCLOC  =    1.301    cutoff for local pot                                    
   LCOR   =        T    correct aug charges                                     
   LPAW   =        T    paw PP                                                  
   EAUG   =  703.443                                                            
   DEXC   =    0.000                                                            
   RMAX   =    2.041    core radius for proj-oper                               
   RAUG   =    1.300    factor for augmentation sphere                          
   RDEP   =    2.103    radius for radial grids                                 
   RDEPT  =    1.618    core radius for aug-charge                              
                                                                                
   Atomic configuration                                                         
    8 entries                                                                   
     n  l   j            E        occ.                                          
     1  0  0.50     -8206.4253   2.0000                                         
     2  0  0.50      -976.1748   2.0000                                         
     2  1  1.50      -839.0571   6.0000                                         
     3  0  0.50      -105.9991   2.0000                                         
     3  1  1.50       -66.4603   6.0000                                         
     3  2  2.50        -4.6458   9.0000                                         
     4  0  0.50        -4.4926   1.0000                                         
     4  3  2.50        -1.3606   0.0000                                         
   Description                                                                  
     l       E           TYP  RCUT    TYP  RCUT                                 
     1    -66.4602962     23  1.700                                             
     1     -1.3605826     23  1.700                                             
     2     -4.6457867     23  2.000                                             
     2     -6.0063693     23  2.000                                             
     0     -4.4925576     23  1.900                                             
     0     16.3626226     23  1.900                                             
  local pseudopotential read in
  partial core-charges read in
  partial kinetic energy density read in
  atomic valenz-charges read in
  non local Contribution for L=           1  read in
    real space projection operators read in
  non local Contribution for L=           1  read in
    real space projection operators read in
  non local Contribution for L=           2  read in
    real space projection operators read in
  non local Contribution for L=           2  read in
    real space projection operators read in
  non local Contribution for L=           0  read in
    real space projection operators read in
  non local Contribution for L=           0  read in
    real space projection operators read in
    PAW grid and wavefunctions read in
 
   number of l-projection  operators is LMAX  =           6
   number of lm-projection operators is LMMAX =          18
 
 POTCAR:    PAW_PBE C 08Apr2002                   
   VRHFIN =C: s2p2                                                              
   LEXCH  = PE                                                                  
   EATOM  =   147.1560 eV,   10.8157 Ry                                         
                                                                                
   TITEL  = PAW_PBE C 08Apr2002                                                 
   LULTRA =        F    use ultrasoft PP ?                                      
   IUNSCR =        1    unscreen: 0-lin 1-nonlin 2-no                           
   RPACOR =    1.200    partial core radius                                     
   POMASS =   12.011; ZVAL   =    4.000    mass and valenz                      
   RCORE  =    1.500    outmost cutoff radius                                   
   RWIGS  =    1.630; RWIGS  =    0.863    wigner-seitz radius (au A)           
   ENMAX  =  400.000; ENMIN  =  300.000 eV                                      
   ICORE  =        2    local potential                                         
   LCOR   =        T    correct aug charges                                     
   LPAW   =        T    paw PP                                                  
   EAUG   =  644.873                                                            
   DEXC   =    0.000                                                            
   RMAX   =    1.529    core radius for proj-oper                               
   RAUG   =    1.300    factor for augmentation sphere                          
   RDEP   =    1.501    radius for radial grids                                 
   RDEPT  =    1.300    core radius for aug-charge                              
                                                                                
   Atomic configuration                                                         
    4 entries                                                                   
     n  l   j            E        occ.                                          
     1  0  0.50      -273.3789   2.0000                                         
     2  0  0.50       -13.7508   2.0000                                         
     2  1  0.50        -5.2854   2.0000                                         
     3  2  1.50        -5.4423   0.0000                                         
   Description                                                                  
     l       E           TYP  RCUT    TYP  RCUT                                 
     0    -13.7508458     23  1.200                                             
     0     -8.2022199     23  1.200                                             
     1     -5.2854383     23  1.500                                             
     1     34.0145650     23  1.500                                             
     2     -5.4423304      7  1.500                                             
  local pseudopotential read in
  partial core-charges read in
  partial kinetic energy density read in
  atomic valenz-charges read in
  non local Contribution for L=           0  read in
    real space projection operators read in
  non local Contribution for L=           0  read in
    real space projection operators read in
  non local Contribution for L=           1  read in
    real space projection operators read in
  non local Contribution for L=           1  read in
    real space projection operators read in
    PAW grid and wavefunctions read in
 
   number of l-projection  operators is LMAX  =           4
   number of lm-projection operators is LMMAX =           8
 
 POTCAR:    PAW_PBE N 08Apr2002                   
   VRHFIN =N: s2p3                                                              
   LEXCH  = PE                                                                  
   EATOM  =   264.5486 eV,   19.4438 Ry                                         
                                                                                
   TITEL  = PAW_PBE N 08Apr2002                                                 
   LULTRA =        F    use ultrasoft PP ?                                      
   IUNSCR =        1    unscreen: 0-lin 1-nonlin 2-no                           
   RPACOR =    1.200    partial core radius                                     
   POMASS =   14.001; ZVAL   =    5.000    mass and valenz                      
   RCORE  =    1.500    outmost cutoff radius                                   
   RWIGS  =    1.400; RWIGS  =    0.741    wigner-seitz radius (au A)           
   ENMAX  =  400.000; ENMIN  =  300.000 eV                                      
   ICORE  =        2    local potential                                         
   LCOR   =        T    correct aug charges                                     
   LPAW   =        T    paw PP                                                  
   EAUG   =  627.112                                                            
   DEXC   =    0.000                                                            
   RMAX   =    1.529    core radius for proj-oper                               
   RAUG   =    1.300    factor for augmentation sphere                          
   RDEP   =    1.514    radius for radial grids                                 
   RDEPT  =    1.338    core radius for aug-charge                              
                                                                                
   Atomic configuration                                                         
    4 entries                                                                   
     n  l   j            E        occ.                                          
     1  0  0.50      -384.7179   2.0000                                         
     2  0  0.50       -18.5828   2.0000                                         
     2  1  0.50        -7.0898   3.0000                                         
     3  2  1.50        -6.8029   0.0000                                         
   Description                                                                  
     l       E           TYP  RCUT    TYP  RCUT                                 
     0    -18.5828119     23  1.200                                             
     0    -13.5018863     23  1.200                                             
     1     -7.0897853     23  1.500                                             
     1      9.5240782     23  1.500                                             
     2     -6.8029130      7  1.500                                             
  local pseudopotential read in
  partial core-charges read in
  partial kinetic energy density read in
  atomic valenz-charges read in
  non local Contribution for L=           0  read in
    real space projection operators read in
  non local Contribution for L=           0  read in
    real space projection operators read in
  non local Contribution for L=           1  read in
    real space projection operators read in
  non local Contribution for L=           1  read in
    real space projection operators read in
    PAW grid and wavefunctions read in
 
   number of l-projection  operators is LMAX  =           4
   number of lm-projection operators is LMMAX =           8
 
  PAW_PBE Ni_pv 06Sep2000               :
 energy of atom  1       EATOM=-3501.1230
 kinetic energy error for atom=    0.0690 (will be added to EATOM!!)
  PAW_PBE C 08Apr2002                   :
 energy of atom  2       EATOM= -147.1560
 kinetic energy error for atom=    0.0076 (will be added to EATOM!!)
  PAW_PBE N 08Apr2002                   :
 energy of atom  3       EATOM= -264.5486
 kinetic energy error for atom=    0.0138 (will be added to EATOM!!)
 
 
 POSCAR: Ni2 C2 N4                               
  positions in direct lattice
  velocities in cartesian coordinates
 exchange correlation table for  LEXCH =        8
   RHO(1)=    0.500       N(1)  =     2000
   RHO(2)=  100.500       N(2)  =     4000
 


--------------------------------------------------------------------------------------------------------


 ion  position               nearest neighbor table
   1  0.000  0.000  0.000-   6 2.06   5 2.06   5 2.06   6 2.06   5 2.06   6 2.06
   2  0.000  0.000  0.500-   7 2.06   8 2.06   8 2.06   7 2.06   8 2.06   7 2.06
   3  0.333  0.667  0.750-   5 1.24   8 1.24
   4  0.667  0.333  0.250-   6 1.24   7 1.24
   5  0.333  0.667  0.884-   3 1.24   1 2.06   1 2.06   1 2.06
   6  0.667  0.333  0.116-   4 1.24   1 2.06   1 2.06   1 2.06
   7  0.667  0.333  0.384-   4 1.24   2 2.06   2 2.06   2 2.06
   8  0.333  0.667  0.616-   3 1.24   2 2.06   2 2.06   2 2.06
 
  LATTYP: Found a hexagonal cell.
 ALAT       =     3.0507836563
 C/A-ratio  =     3.0326722048
  
  Lattice vectors:
  
 A1 = (   3.0507836562,  -0.0000000000,   0.0000000000)
 A2 = (  -1.5253918281,   2.6420561477,   0.0000000000)
 A3 = (   0.0000000000,   0.0000000000,   9.2520267973)


Analysis of symmetry for initial positions (statically):
=====================================================================
 Subroutine PRICEL returns:
 Original cell was already a primitive cell.
 

 Routine SETGRP: Setting up the symmetry group for a 
 hexagonal supercell.


 Subroutine GETGRP returns: Found 24 space group operations
 (whereof 12 operations were pure point group operations)
 out of a pool of 24 trial point group operations.


The static configuration has the point symmetry D_3d.
 The point group associated with its full space group is D_6h.


Analysis of symmetry for dynamics (positions and initial velocities):
=====================================================================
 Subroutine PRICEL returns:
 Original cell was already a primitive cell.
 

 Routine SETGRP: Setting up the symmetry group for a 
 hexagonal supercell.


 Subroutine GETGRP returns: Found 24 space group operations
 (whereof 12 operations were pure point group operations)
 out of a pool of 24 trial point group operations.


The dynamic configuration has the point symmetry D_3d.
 The point group associated with its full space group is D_6h.


Analysis of structural, dynamic, and magnetic symmetry:
=====================================================================
 Subroutine PRICEL returns:
 Original cell was already a primitive cell.
 

 Routine SETGRP: Setting up the symmetry group for a 
 hexagonal supercell.


 Subroutine GETGRP returns: Found 24 space group operations
 (whereof 12 operations were pure point group operations)
 out of a pool of 24 trial point group operations.


The magnetic configuration has the point symmetry D_3d.
 The point group associated with its full space group is D_6h.


 Subroutine INISYM returns: Found 24 space group operations
 (whereof 12 operations are pure point group operations),
 and found     1 'primitive' translations

 
 
 KPOINTS: K                                       

Automatic generation of k-mesh.
Space group operators:
 irot       det(A)        alpha          n_x          n_y          n_z        tau_x        tau_y        tau_z
    1     1.000000     0.000001     1.000000     0.000000     0.000000     0.000000     0.000000     0.000000
    2    -1.000000     0.000001     1.000000     0.000000     0.000000     0.000000     0.000000     0.000000
    3     1.000000   120.000000     0.000000     0.000000    -1.000000     0.000000     0.000000     0.000000
    4    -1.000000   120.000000     0.000000     0.000000    -1.000000     0.000000     0.000000     0.000000
    5     1.000000   120.000000     0.000000     0.000000     1.000000     0.000000     0.000000     0.000000
    6    -1.000000   120.000000     0.000000     0.000000     1.000000     0.000000     0.000000     0.000000
    7     1.000000   180.000000     1.000000    -0.000000     0.000000     0.000000     0.000000     0.000000
    8    -1.000000   180.000000     1.000000    -0.000000     0.000000     0.000000     0.000000     0.000000
    9     1.000000   180.000000     0.500000    -0.866025     0.000000     0.000000     0.000000     0.000000
   10    -1.000000   180.000000     0.500000    -0.866025     0.000000     0.000000     0.000000     0.000000
   11     1.000000   180.000000    -0.500000    -0.866025     0.000000     0.000000     0.000000     0.000000
   12    -1.000000   180.000000    -0.500000    -0.866025     0.000000     0.000000     0.000000     0.000000
   13     1.000000    60.000000     0.000000     0.000000    -1.000000     0.000000     0.000000     0.500000
   14    -1.000000    60.000000     0.000000     0.000000    -1.000000     0.000000     0.000000     0.500000
   15     1.000000   180.000000     0.000000     0.000000     1.000000     0.000000     0.000000     0.500000
   16    -1.000000   180.000000     0.000000     0.000000     1.000000     0.000000     0.000000     0.500000
   17     1.000000    60.000000     0.000000     0.000000     1.000000     0.000000     0.000000     0.500000
   18    -1.000000    60.000000     0.000000     0.000000     1.000000     0.000000     0.000000     0.500000
   19     1.000000   180.000000     0.866025    -0.500000     0.000000     0.000000     0.000000     0.500000
   20    -1.000000   180.000000     0.866025    -0.500000     0.000000     0.000000     0.000000     0.500000
   21     1.000000   180.000000    -0.000000    -1.000000     0.000000     0.000000     0.000000     0.500000
   22    -1.000000   180.000000    -0.000000    -1.000000     0.000000     0.000000     0.000000     0.500000
   23     1.000000   180.000000     0.866025     0.500000     0.000000     0.000000     0.000000     0.500000
   24    -1.000000   180.000000     0.866025     0.500000     0.000000     0.000000     0.000000     0.500000
 
 Subroutine IBZKPT returns following result:
 ===========================================
 
 Found     24 irreducible k-points:
 
 Following reciprocal coordinates:
            Coordinates               Weight
  0.000000  0.000000  0.000000      1.000000
  0.111111 -0.000000  0.000000      6.000000
  0.222222 -0.000000  0.000000      6.000000
  0.333333 -0.000000  0.000000      6.000000
  0.444444 -0.000000  0.000000      6.000000
  0.111111  0.111111  0.000000      6.000000
  0.222222  0.111111  0.000000     12.000000
  0.333333  0.111111  0.000000     12.000000
  0.444444  0.111111  0.000000      6.000000
  0.222222  0.222222  0.000000      6.000000
  0.333333  0.222222  0.000000     12.000000
  0.333333  0.333333  0.000000      2.000000
  0.000000  0.000000  0.333333      2.000000
  0.111111 -0.000000  0.333333     12.000000
  0.222222 -0.000000  0.333333     12.000000
  0.333333 -0.000000  0.333333     12.000000
  0.444444 -0.000000  0.333333     12.000000
  0.111111  0.111111  0.333333     12.000000
  0.222222  0.111111  0.333333     24.000000
  0.333333  0.111111  0.333333     24.000000
  0.444444  0.111111  0.333333     12.000000
  0.222222  0.222222  0.333333     12.000000
  0.333333  0.222222  0.333333     24.000000
  0.333333  0.333333  0.333333      4.000000
 
 Following cartesian coordinates:
            Coordinates               Weight
  0.000000  0.000000  0.000000      1.000000
  0.036421  0.021027  0.000000      6.000000
  0.072841  0.042055  0.000000      6.000000
  0.109262  0.063082  0.000000      6.000000
  0.145682  0.084110  0.000000      6.000000
  0.036421  0.063082  0.000000      6.000000
  0.072841  0.084110  0.000000     12.000000
  0.109262  0.105137  0.000000     12.000000
  0.145682  0.126164  0.000000      6.000000
  0.072841  0.126164  0.000000      6.000000
  0.109262  0.147192  0.000000     12.000000
  0.109262  0.189247  0.000000      2.000000
  0.000000  0.000000  0.036028      2.000000
  0.036421  0.021027  0.036028     12.000000
  0.072841  0.042055  0.036028     12.000000
  0.109262  0.063082  0.036028     12.000000
  0.145682  0.084110  0.036028     12.000000
  0.036421  0.063082  0.036028     12.000000
  0.072841  0.084110  0.036028     24.000000
  0.109262  0.105137  0.036028     24.000000
  0.145682  0.126164  0.036028     12.000000
  0.072841  0.126164  0.036028     12.000000
  0.109262  0.147192  0.036028     24.000000
  0.109262  0.189247  0.036028      4.000000
 
 TETIRR: Found    207 inequivalent tetrahedra from     1458
 
 Subroutine IBZKPT_HF returns following result:
 ==============================================
 
 Found    243 k-points in 1st BZ
 the following    243 k-points will be used (e.g. in the exchange kernel)
 Following reciprocal coordinates:   # in IRBZ
  0.000000  0.000000  0.000000    0.00411523   1 t-inv F
  0.111111 -0.000000  0.000000    0.00411523   2 t-inv F
  0.222222 -0.000000  0.000000    0.00411523   3 t-inv F
  0.333333 -0.000000  0.000000    0.00411523   4 t-inv F
  0.444444 -0.000000  0.000000    0.00411523   5 t-inv F
  0.111111  0.111111  0.000000    0.00411523   6 t-inv F
  0.222222  0.111111  0.000000    0.00411523   7 t-inv F
  0.333333  0.111111  0.000000    0.00411523   8 t-inv F
  0.444444  0.111111  0.000000    0.00411523   9 t-inv F
  0.222222  0.222222  0.000000    0.00411523  10 t-inv F
  0.333333  0.222222  0.000000    0.00411523  11 t-inv F
  0.333333  0.333333  0.000000    0.00411523  12 t-inv F
  0.000000  0.000000  0.333333    0.00411523  13 t-inv F
  0.111111 -0.000000  0.333333    0.00411523  14 t-inv F
  0.222222 -0.000000  0.333333    0.00411523  15 t-inv F
  0.333333 -0.000000  0.333333    0.00411523  16 t-inv F
  0.444444 -0.000000  0.333333    0.00411523  17 t-inv F
  0.111111  0.111111  0.333333    0.00411523  18 t-inv F
  0.222222  0.111111  0.333333    0.00411523  19 t-inv F
  0.333333  0.111111  0.333333    0.00411523  20 t-inv F
  0.444444  0.111111  0.333333    0.00411523  21 t-inv F
  0.222222  0.222222  0.333333    0.00411523  22 t-inv F
  0.333333  0.222222  0.333333    0.00411523  23 t-inv F
  0.333333  0.333333  0.333333    0.00411523  24 t-inv F
 -0.111111  0.000000  0.000000    0.00411523   2 t-inv F
 -0.111111  0.111111  0.000000    0.00411523   2 t-inv F
  0.111111 -0.111111  0.000000    0.00411523   2 t-inv F
 -0.000000 -0.111111  0.000000    0.00411523   2 t-inv F
  0.000000  0.111111  0.000000    0.00411523   2 t-inv F
 -0.222222  0.000000  0.000000    0.00411523   3 t-inv F
 -0.222222  0.222222  0.000000    0.00411523   3 t-inv F
  0.222222 -0.222222  0.000000    0.00411523   3 t-inv F
 -0.000000 -0.222222  0.000000    0.00411523   3 t-inv F
  0.000000  0.222222  0.000000    0.00411523   3 t-inv F
 -0.333333  0.000000  0.000000    0.00411523   4 t-inv F
 -0.333333  0.333333  0.000000    0.00411523   4 t-inv F
  0.333333 -0.333333  0.000000    0.00411523   4 t-inv F
 -0.000000 -0.333333  0.000000    0.00411523   4 t-inv F
  0.000000  0.333333  0.000000    0.00411523   4 t-inv F
 -0.444444  0.000000  0.000000    0.00411523   5 t-inv F
 -0.444444  0.444444  0.000000    0.00411523   5 t-inv F
  0.444444 -0.444444  0.000000    0.00411523   5 t-inv F
 -0.000000 -0.444444  0.000000    0.00411523   5 t-inv F
  0.000000  0.444444  0.000000    0.00411523   5 t-inv F
 -0.111111 -0.111111  0.000000    0.00411523   6 t-inv F
 -0.222222  0.111111  0.000000    0.00411523   6 t-inv F
  0.222222 -0.111111  0.000000    0.00411523   6 t-inv F
  0.111111 -0.222222  0.000000    0.00411523   6 t-inv F
 -0.111111  0.222222  0.000000    0.00411523   6 t-inv F
 -0.222222 -0.111111  0.000000    0.00411523   7 t-inv F
 -0.333333  0.222222  0.000000    0.00411523   7 t-inv F
  0.333333 -0.222222  0.000000    0.00411523   7 t-inv F
  0.111111 -0.333333  0.000000    0.00411523   7 t-inv F
 -0.111111  0.333333  0.000000    0.00411523   7 t-inv F
  0.222222 -0.333333  0.000000    0.00411523   7 t-inv F
 -0.222222  0.333333  0.000000    0.00411523   7 t-inv F
 -0.333333  0.111111  0.000000    0.00411523   7 t-inv F
  0.333333 -0.111111  0.000000    0.00411523   7 t-inv F
  0.111111  0.222222  0.000000    0.00411523   7 t-inv F
 -0.111111 -0.222222  0.000000    0.00411523   7 t-inv F
 -0.333333 -0.111111  0.000000    0.00411523   8 t-inv F
 -0.444444  0.333333  0.000000    0.00411523   8 t-inv F
  0.444444 -0.333333  0.000000    0.00411523   8 t-inv F
  0.111111 -0.444444  0.000000    0.00411523   8 t-inv F
 -0.111111  0.444444  0.000000    0.00411523   8 t-inv F
  0.333333 -0.444444  0.000000    0.00411523   8 t-inv F
 -0.333333  0.444444  0.000000    0.00411523   8 t-inv F
 -0.444444  0.111111  0.000000    0.00411523   8 t-inv F
  0.444444 -0.111111  0.000000    0.00411523   8 t-inv F
  0.111111  0.333333  0.000000    0.00411523   8 t-inv F
 -0.111111 -0.333333  0.000000    0.00411523   8 t-inv F
 -0.444444 -0.111111  0.000000    0.00411523   9 t-inv F
 -0.555556  0.444444  0.000000    0.00411523   9 t-inv F
  0.555556 -0.444444  0.000000    0.00411523   9 t-inv F
  0.111111 -0.555556  0.000000    0.00411523   9 t-inv F
 -0.111111  0.555556  0.000000    0.00411523   9 t-inv F
 -0.222222 -0.222222  0.000000    0.00411523  10 t-inv F
 -0.444444  0.222222  0.000000    0.00411523  10 t-inv F
  0.444444 -0.222222  0.000000    0.00411523  10 t-inv F
  0.222222 -0.444444  0.000000    0.00411523  10 t-inv F
 -0.222222  0.444444  0.000000    0.00411523  10 t-inv F
 -0.333333 -0.222222  0.000000    0.00411523  11 t-inv F
 -0.555556  0.333333  0.000000    0.00411523  11 t-inv F
  0.555556 -0.333333  0.000000    0.00411523  11 t-inv F
  0.222222 -0.555556  0.000000    0.00411523  11 t-inv F
 -0.222222  0.555556  0.000000    0.00411523  11 t-inv F
  0.333333 -0.555556  0.000000    0.00411523  11 t-inv F
 -0.333333  0.555556  0.000000    0.00411523  11 t-inv F
 -0.555556  0.222222  0.000000    0.00411523  11 t-inv F
  0.555556 -0.222222  0.000000    0.00411523  11 t-inv F
  0.222222  0.333333  0.000000    0.00411523  11 t-inv F
 -0.222222 -0.333333  0.000000    0.00411523  11 t-inv F
 -0.333333 -0.333333  0.000000    0.00411523  12 t-inv F
  0.000000  0.000000 -0.333333    0.00411523  13 t-inv F
 -0.111111  0.000000 -0.333333    0.00411523  14 t-inv F
 -0.111111  0.111111  0.333333    0.00411523  14 t-inv F
  0.111111 -0.111111 -0.333333    0.00411523  14 t-inv F
 -0.000000 -0.111111  0.333333    0.00411523  14 t-inv F
  0.000000  0.111111 -0.333333    0.00411523  14 t-inv F
  0.000000  0.111111  0.333333    0.00411523  14 t-inv F spinflp
 -0.000000 -0.111111 -0.333333    0.00411523  14 t-inv F spinflp
 -0.111111  0.000000  0.333333    0.00411523  14 t-inv F spinflp
  0.111111 -0.000000 -0.333333    0.00411523  14 t-inv F spinflp
  0.111111 -0.111111  0.333333    0.00411523  14 t-inv F spinflp
 -0.111111  0.111111 -0.333333    0.00411523  14 t-inv F spinflp
 -0.222222  0.000000 -0.333333    0.00411523  15 t-inv F
 -0.222222  0.222222  0.333333    0.00411523  15 t-inv F
  0.222222 -0.222222 -0.333333    0.00411523  15 t-inv F
 -0.000000 -0.222222  0.333333    0.00411523  15 t-inv F
  0.000000  0.222222 -0.333333    0.00411523  15 t-inv F
  0.000000  0.222222  0.333333    0.00411523  15 t-inv F spinflp
 -0.000000 -0.222222 -0.333333    0.00411523  15 t-inv F spinflp
 -0.222222  0.000000  0.333333    0.00411523  15 t-inv F spinflp
  0.222222 -0.000000 -0.333333    0.00411523  15 t-inv F spinflp
  0.222222 -0.222222  0.333333    0.00411523  15 t-inv F spinflp
 -0.222222  0.222222 -0.333333    0.00411523  15 t-inv F spinflp
 -0.333333  0.000000 -0.333333    0.00411523  16 t-inv F
 -0.333333  0.333333  0.333333    0.00411523  16 t-inv F
  0.333333 -0.333333 -0.333333    0.00411523  16 t-inv F
 -0.000000 -0.333333  0.333333    0.00411523  16 t-inv F
  0.000000  0.333333 -0.333333    0.00411523  16 t-inv F
  0.000000  0.333333  0.333333    0.00411523  16 t-inv F spinflp
 -0.000000 -0.333333 -0.333333    0.00411523  16 t-inv F spinflp
 -0.333333  0.000000  0.333333    0.00411523  16 t-inv F spinflp
  0.333333 -0.000000 -0.333333    0.00411523  16 t-inv F spinflp
  0.333333 -0.333333  0.333333    0.00411523  16 t-inv F spinflp
 -0.333333  0.333333 -0.333333    0.00411523  16 t-inv F spinflp
 -0.444444  0.000000 -0.333333    0.00411523  17 t-inv F
 -0.444444  0.444444  0.333333    0.00411523  17 t-inv F
  0.444444 -0.444444 -0.333333    0.00411523  17 t-inv F
 -0.000000 -0.444444  0.333333    0.00411523  17 t-inv F
  0.000000  0.444444 -0.333333    0.00411523  17 t-inv F
  0.000000  0.444444  0.333333    0.00411523  17 t-inv F spinflp
 -0.000000 -0.444444 -0.333333    0.00411523  17 t-inv F spinflp
 -0.444444  0.000000  0.333333    0.00411523  17 t-inv F spinflp
  0.444444 -0.000000 -0.333333    0.00411523  17 t-inv F spinflp
  0.444444 -0.444444  0.333333    0.00411523  17 t-inv F spinflp
 -0.444444  0.444444 -0.333333    0.00411523  17 t-inv F spinflp
 -0.111111 -0.111111 -0.333333    0.00411523  18 t-inv F
 -0.222222  0.111111  0.333333    0.00411523  18 t-inv F
  0.222222 -0.111111 -0.333333    0.00411523  18 t-inv F
  0.111111 -0.222222  0.333333    0.00411523  18 t-inv F
 -0.111111  0.222222 -0.333333    0.00411523  18 t-inv F
  0.111111 -0.222222 -0.333333    0.00411523  18 t-inv F
 -0.111111  0.222222  0.333333    0.00411523  18 t-inv F
 -0.222222  0.111111 -0.333333    0.00411523  18 t-inv F
  0.222222 -0.111111  0.333333    0.00411523  18 t-inv F
  0.111111  0.111111 -0.333333    0.00411523  18 t-inv F
 -0.111111 -0.111111  0.333333    0.00411523  18 t-inv F
 -0.222222 -0.111111 -0.333333    0.00411523  19 t-inv F
 -0.333333  0.222222  0.333333    0.00411523  19 t-inv F
  0.333333 -0.222222 -0.333333    0.00411523  19 t-inv F
  0.111111 -0.333333  0.333333    0.00411523  19 t-inv F
 -0.111111  0.333333 -0.333333    0.00411523  19 t-inv F
  0.222222 -0.333333 -0.333333    0.00411523  19 t-inv F
 -0.222222  0.333333  0.333333    0.00411523  19 t-inv F
 -0.333333  0.111111 -0.333333    0.00411523  19 t-inv F
  0.333333 -0.111111  0.333333    0.00411523  19 t-inv F
  0.111111  0.222222 -0.333333    0.00411523  19 t-inv F
 -0.111111 -0.222222  0.333333    0.00411523  19 t-inv F
 -0.111111  0.333333  0.333333    0.00411523  19 t-inv F spinflp
  0.111111 -0.333333 -0.333333    0.00411523  19 t-inv F spinflp
 -0.222222 -0.111111  0.333333    0.00411523  19 t-inv F spinflp
  0.222222  0.111111 -0.333333    0.00411523  19 t-inv F spinflp
  0.333333 -0.222222  0.333333    0.00411523  19 t-inv F spinflp
 -0.333333  0.222222 -0.333333    0.00411523  19 t-inv F spinflp
 -0.111111 -0.222222 -0.333333    0.00411523  19 t-inv F spinflp
  0.111111  0.222222  0.333333    0.00411523  19 t-inv F spinflp
 -0.222222  0.333333 -0.333333    0.00411523  19 t-inv F spinflp
  0.222222 -0.333333  0.333333    0.00411523  19 t-inv F spinflp
  0.333333 -0.111111 -0.333333    0.00411523  19 t-inv F spinflp
 -0.333333  0.111111  0.333333    0.00411523  19 t-inv F spinflp
 -0.333333 -0.111111 -0.333333    0.00411523  20 t-inv F
 -0.444444  0.333333  0.333333    0.00411523  20 t-inv F
  0.444444 -0.333333 -0.333333    0.00411523  20 t-inv F
  0.111111 -0.444444  0.333333    0.00411523  20 t-inv F
 -0.111111  0.444444 -0.333333    0.00411523  20 t-inv F
  0.333333 -0.444444 -0.333333    0.00411523  20 t-inv F
 -0.333333  0.444444  0.333333    0.00411523  20 t-inv F
 -0.444444  0.111111 -0.333333    0.00411523  20 t-inv F
  0.444444 -0.111111  0.333333    0.00411523  20 t-inv F
  0.111111  0.333333 -0.333333    0.00411523  20 t-inv F
 -0.111111 -0.333333  0.333333    0.00411523  20 t-inv F
 -0.111111  0.444444  0.333333    0.00411523  20 t-inv F spinflp
  0.111111 -0.444444 -0.333333    0.00411523  20 t-inv F spinflp
 -0.333333 -0.111111  0.333333    0.00411523  20 t-inv F spinflp
  0.333333  0.111111 -0.333333    0.00411523  20 t-inv F spinflp
  0.444444 -0.333333  0.333333    0.00411523  20 t-inv F spinflp
 -0.444444  0.333333 -0.333333    0.00411523  20 t-inv F spinflp
 -0.111111 -0.333333 -0.333333    0.00411523  20 t-inv F spinflp
  0.111111  0.333333  0.333333    0.00411523  20 t-inv F spinflp
 -0.333333  0.444444 -0.333333    0.00411523  20 t-inv F spinflp
  0.333333 -0.444444  0.333333    0.00411523  20 t-inv F spinflp
  0.444444 -0.111111 -0.333333    0.00411523  20 t-inv F spinflp
 -0.444444  0.111111  0.333333    0.00411523  20 t-inv F spinflp
 -0.444444 -0.111111 -0.333333    0.00411523  21 t-inv F
 -0.555556  0.444444  0.333333    0.00411523  21 t-inv F
  0.555556 -0.444444 -0.333333    0.00411523  21 t-inv F
  0.111111 -0.555556  0.333333    0.00411523  21 t-inv F
 -0.111111  0.555556 -0.333333    0.00411523  21 t-inv F
  0.444444 -0.555556 -0.333333    0.00411523  21 t-inv F
 -0.444444  0.555556  0.333333    0.00411523  21 t-inv F
 -0.555556  0.111111 -0.333333    0.00411523  21 t-inv F
  0.555556 -0.111111  0.333333    0.00411523  21 t-inv F
  0.111111  0.444444 -0.333333    0.00411523  21 t-inv F
 -0.111111 -0.444444  0.333333    0.00411523  21 t-inv F
 -0.222222 -0.222222 -0.333333    0.00411523  22 t-inv F
 -0.444444  0.222222  0.333333    0.00411523  22 t-inv F
  0.444444 -0.222222 -0.333333    0.00411523  22 t-inv F
  0.222222 -0.444444  0.333333    0.00411523  22 t-inv F
 -0.222222  0.444444 -0.333333    0.00411523  22 t-inv F
  0.222222 -0.444444 -0.333333    0.00411523  22 t-inv F
 -0.222222  0.444444  0.333333    0.00411523  22 t-inv F
 -0.444444  0.222222 -0.333333    0.00411523  22 t-inv F
  0.444444 -0.222222  0.333333    0.00411523  22 t-inv F
  0.222222  0.222222 -0.333333    0.00411523  22 t-inv F
 -0.222222 -0.222222  0.333333    0.00411523  22 t-inv F
 -0.333333 -0.222222 -0.333333    0.00411523  23 t-inv F
 -0.555556  0.333333  0.333333    0.00411523  23 t-inv F
  0.555556 -0.333333 -0.333333    0.00411523  23 t-inv F
  0.222222 -0.555556  0.333333    0.00411523  23 t-inv F
 -0.222222  0.555556 -0.333333    0.00411523  23 t-inv F
  0.333333 -0.555556 -0.333333    0.00411523  23 t-inv F
 -0.333333  0.555556  0.333333    0.00411523  23 t-inv F
 -0.555556  0.222222 -0.333333    0.00411523  23 t-inv F
  0.555556 -0.222222  0.333333    0.00411523  23 t-inv F
  0.222222  0.333333 -0.333333    0.00411523  23 t-inv F
 -0.222222 -0.333333  0.333333    0.00411523  23 t-inv F
 -0.222222  0.555556  0.333333    0.00411523  23 t-inv F spinflp
  0.222222 -0.555556 -0.333333    0.00411523  23 t-inv F spinflp
 -0.333333 -0.222222  0.333333    0.00411523  23 t-inv F spinflp
  0.333333  0.222222 -0.333333    0.00411523  23 t-inv F spinflp
  0.555556 -0.333333  0.333333    0.00411523  23 t-inv F spinflp
 -0.555556  0.333333 -0.333333    0.00411523  23 t-inv F spinflp
 -0.222222 -0.333333 -0.333333    0.00411523  23 t-inv F spinflp
  0.222222  0.333333  0.333333    0.00411523  23 t-inv F spinflp
 -0.333333  0.555556 -0.333333    0.00411523  23 t-inv F spinflp
  0.333333 -0.555556  0.333333    0.00411523  23 t-inv F spinflp
  0.555556 -0.222222 -0.333333    0.00411523  23 t-inv F spinflp
 -0.555556  0.222222  0.333333    0.00411523  23 t-inv F spinflp
 -0.333333 -0.333333 -0.333333    0.00411523  24 t-inv F
  0.333333 -0.666667 -0.333333    0.00411523  24 t-inv F
 -0.333333  0.666667  0.333333    0.00411523  24 t-inv F


--------------------------------------------------------------------------------------------------------




 Dimension of arrays:
   k-points           NKPTS =     24   k-points in BZ     NKDIM =    243   number of bands    NBANDS=     40
   number of dos      NEDOS =  20000   number of ions     NIONS =      8
   non local maximal  LDIM  =      6   non local SUM 2l+1 LMDIM =     18
   total plane-waves  NPLWV =  40320
   max r-space proj   IRMAX =      1   max aug-charges    IRDMAX=  12135
   dimension x,y,z NGX =    24 NGY =   24 NGZ =   70
   dimension x,y,z NGXF=    48 NGYF=   48 NGZF=  140
   support grid    NGXF=    48 NGYF=   48 NGZF=  140
   ions per type =               2   2   4
 NGX,Y,Z   is equivalent  to a cutoff of  13.08, 13.08, 12.58 a.u.
 NGXF,Y,Z  is equivalent  to a cutoff of  26.16, 26.16, 25.16 a.u.


 I would recommend the setting:
   dimension x,y,z NGX =    22 NGY =   22 NGZ =   67
 SYSTEM =  unknown system                          
 POSCAR =  Ni2 C2 N4                               

 Startparameter for this run:
   NWRITE =      2    write-flag & timer
   PREC   = accura    normal or accurate (medium, high low for compatibility)
   ISTART =      1    job   : 0-new  1-cont  2-samecut
   ICHARG =      0    charge: 1-file 2-atom 10-const
   ISPIN  =      2    spin polarized calculation?
   LNONCOLLINEAR =      F non collinear calculations
   LSORBIT =      F    spin-orbit coupling
   INIWAV =      1    electr: 0-lowe 1-rand  2-diag
   LASPH  =      F    aspherical Exc in radial PAW
   METAGGA=      F    non-selfconsistent MetaGGA calc.

 Electronic Relaxation 1
   ENCUT  =  500.0 eV  36.75 Ry    6.06 a.u.   5.56  5.56 16.87*2*pi/ulx,y,z
   ENINI  =  500.0     initial cutoff
   ENAUG  =  703.4 eV  augmentation charge cutoff
   NELM   =     60;   NELMIN=  5; NELMDL=  0     # of ELM steps 
   EDIFF  = 0.1E-05   stopping-criterion for ELM
   LREAL  =      F    real-space projection
   NLSPLINE    = F    spline interpolate recip. space projectors
   LCOMPAT=      F    compatible to vasp.4.4
   GGA_COMPAT  = T    GGA compatible to vasp.4.4-vasp.4.6
   LMAXPAW     = -100 max onsite density
   LMAXMIX     =    2 max onsite mixed and CHGCAR
   VOSKOWN=      0    Vosko Wilk Nusair interpolation
   ROPT   =    0.00000   0.00000   0.00000
 Ionic relaxation
   EDIFFG = 0.1E-04   stopping-criterion for IOM
   NSW    =      0    number of steps for IOM
   NBLOCK =      1;   KBLOCK =      1    inner block; outer block 
   IBRION =     -1    ionic relax: 0-MD 1-quasi-New 2-CG
   NFREE  =      1    steps in history (QN), initial steepest desc. (CG)
   ISIF   =      0    stress and relaxation
   IWAVPR =     10    prediction:  0-non 1-charg 2-wave 3-comb
   ISYM   =      3    0-nonsym 1-usesym 2-fastsym
   LCORR  =      T    Harris-Foulkes like correction to forces

   POTIM  = 0.5000    time-step for ionic-motion
   TEIN   =    0.0    initial temperature
   TEBEG  =    0.0;   TEEND  =   0.0 temperature during run
   SMASS  =  -3.00    Nose mass-parameter (am)
   estimated Nose-frequenzy (Omega)   =  0.10E-29 period in steps =****** mass=  -0.213E-27a.u.
   SCALEE = 1.0000    scale energy and forces
   NPACO  =    256;   APACO  = 16.0  distance and # of slots for P.C.
   PSTRESS=    0.0 pullay stress

  Mass of Ions in am
   POMASS =  58.69 12.01 14.00
  Ionic Valenz
   ZVAL   =  16.00  4.00  5.00
  Atomic Wigner-Seitz radii
   RWIGS  =  -1.00 -1.00 -1.00
  virtual crystal weights 
   VCA    =   1.00  1.00  1.00
   NELECT =      60.0000    total number of electrons
   NUPDOWN=      -1.0000    fix difference up-down

 DOS related values:
   EMIN   = -20.00;   EMAX   = 30.00  energy-range for DOS
   EFERMI =   0.00
   ISMEAR =    -5;   SIGMA  =   0.20  broadening in eV -4-tet -1-fermi 0-gaus

 Electronic relaxation 2 (details)
   IALGO  =     58    algorithm
   LDIAG  =      T    sub-space diagonalisation (order eigenvalues)
   LSUBROT=      F    optimize rotation matrix (better conditioning)
   TURBO    =      0    0=normal 1=particle mesh
   IRESTART =      0    0=no restart 2=restart with 2 vectors
   NREBOOT  =      0    no. of reboots
   NMIN     =      0    reboot dimension
   EREF     =   0.00    reference energy to select bands
   IMIX   =      4    mixing-type and parameters
     AMIX     =   0.20;   BMIX     =  0.00
     AMIX_MAG =   0.80;   BMIX_MAG =  0.00
     AMIN     =   0.10
     WC   =   100.;   INIMIX=   1;  MIXPRE=   1;  MAXMIX= -45

 Intra band minimization:
   WEIMIN = 0.0000     energy-eigenvalue tresh-hold
   EBREAK =  0.62E-08  absolut break condition
   DEPER  =   0.30     relativ break condition  

   TIME   =   0.40     timestep for ELM

  volume/ion in A,a.u.               =       9.32        62.91
  Fermi-wavevector in a.u.,A,eV,Ry     =   1.522633  2.877358 31.543885  2.318410
  Thomas-Fermi vector in A             =   2.631185
 
 Write flags
   LWAVE  =      T    write WAVECAR
   LCHARG =      T    write CHGCAR
   LVTOT  =      F    write LOCPOT, total local potential
   LVHAR  =      F    write LOCPOT, Hartree potential only
   LELF   =      F    write electronic localiz. function (ELF)
   LORBIT =     11    0 simple, 1 ext, 2 COOP (PROOUT)


 Dipole corrections
   LMONO  =      F    monopole corrections only (constant potential shift)
   LDIPOL =      F    correct potential (dipole corrections)
   IDIPOL =      0    1-x, 2-y, 3-z, 4-all directions 
   EPSILON=  1.0000000 bulk dielectric constant

 Exchange correlation treatment:
   GGA     =    --    GGA type
   LEXCH   =     8    internal setting for exchange type
   VOSKOWN=      0    Vosko Wilk Nusair interpolation
   EXXOEP  =     0    0=HF, 1=EXX-LHF (local Hartree Fock) 2=EXX OEP
   LHFCALC =     T    Hartree Fock is set to
   LSYMGRAD=     F    symmetrize gradient (conserves proper symmetry)
   PRECFOCK=normal    Normal, Fast or Accurate (Low or Medium for compatibility)
   LRHFCALC=     F    long range Hartree Fock
   LRSCOR  =     F    long range correlation only (use DFT for short range part)
   LTHOMAS =     F    Thomas Fermi screening in HF
   LMODELHF=     F    short range full HF, long range fraction AEXX
   ENCUT4O =  -1.0   cutoff for four orbital integrals eV
   LMAXFOCK=     4    L truncation for augmentation on plane wave grid
   LMAXFOCKAE=  -1    L truncation for all-electron charge restoration on plane wave grid
   NMAXFOCKAE=   1    number of basis functions for all-electron charge restoration
   LFOCKAEDFT=     F  apply the AE augmentation even for DFT
   NKREDX  =     1    reduce k-point grid by
   NKREDY  =     1    reduce k-point grid by
   NKREDZ  =     1    reduce k-point grid by
   SHIFTRED=     F    shift reduced grid of Gamma
   HFKIDENT=     F    idential grid for each k-point
   ODDONLY =     F    use only odd q-grid points
   EVENONLY=     F    use only even q-grid points
   HFALPHA =   -1.0000 decay constant for conv. correction
   MCALPHA =    0.0000 extent of test-charge in conv. correction in multipole expansion
   AEXX    =    0.2000 exact exchange contribution
   HFSCREEN=    0.2000 screening length (either q_TF or 0.3 A-1)
   HFSCREENC=   0.2000 screening length for correlation (either q_TF or 0.3 A-1)
   HFRCUT  =    0.0000 spherical cutoff for potential kernel
   ALDAX   =    0.8000 LDA exchange part
   AGGAX   =    0.8000 GGA exchange part
   ALDAC   =    1.0000 LDA correlation
   AGGAC   =    1.0000 GGA correlation
   NBANDSGWLOW=     1    first orbital included in HF term
   ENCUTFOCK=  -1.0 apply spherical cutoff to Coloumb kernel
 Linear response parameters
   LEPSILON=     F    determine dielectric tensor
   LRPA    =     F    only Hartree local field effects (RPA)
   LNABLA  =     F    use nabla operator in PAW spheres
   LVEL    =     F    velocity operator in full k-point grid
   LINTERFAST=   F  fast interpolation
   KINTER  =     0    interpolate to denser k-point grid
   CSHIFT  =0.1000    complex shift for real part using Kramers Kronig
   OMEGAMAX=  -1.0    maximum frequency
   DEG_THRESHOLD= 0.2000000E-02 threshold for treating states as degnerate
   RTIME   =    0.100 relaxation time in fs

 Orbital magnetization related:
   ORBITALMAG=     F  switch on orbital magnetization
   LCHIMAG   =     F  perturbation theory with respect to B field
   DQ        =  0.001000  dq finite difference perturbation B field



--------------------------------------------------------------------------------------------------------


 Static calculation
 charge density and potential will be updated during run
 spin polarized calculation
 Conjugate gradient for all bands (Freysoldt, et al. PRB 79, 241103 (2009))
 preconditioned conjugated gradient                                        
 perform sub-space diagonalisation
    before iterative eigenvector-optimisation
 modified Broyden-mixing scheme, WC =      100.0
 initial mixing is a Kerker type mixing with AMIX =  0.2000 and BMIX =      0.0000
 Hartree-type preconditioning will be used
 using additional bands           10
 reciprocal scheme for non local part
 use partial core corrections
 no Harris-corrections to forces 
 use gradient corrections 
 use of overlap-Matrix (Vanderbilt PP)
 Fermi weights with tetrahedron method with Bloechl corrections


--------------------------------------------------------------------------------------------------------


  energy-cutoff  :      500.00
  volume of cell :       74.57
      direct lattice vectors                 reciprocal lattice vectors
     3.050783656 -0.000000000  0.000000000     0.327784633  0.189246546  0.000000000
    -1.525391828  2.642056148  0.000000000     0.000000000  0.378493092  0.000000000
     0.000000000  0.000000000  9.252026797     0.000000000  0.000000000  0.108084425

  length of vectors
     3.050783656  3.050783656  9.252026797     0.378493092  0.378493092  0.108084425


 
 old parameters found on file WAVECAR:
  energy-cutoff  :      500.00
  volume of cell :       74.57
      direct lattice vectors                 reciprocal lattice vectors
     3.050783656 -0.000000000  0.000000000     0.327784633  0.189246546  0.000000000
    -1.525391828  2.642056148  0.000000000     0.000000000  0.378493092  0.000000000
     0.000000000  0.000000000  9.252026797     0.000000000  0.000000000  0.108084425

  length of vectors

 
 k-points in units of 2pi/SCALE and weight: K                                       
   0.00000000  0.00000000  0.00000000       0.004
   0.03642051  0.02102739  0.00000000       0.025
   0.07284103  0.04205479  0.00000000       0.025
   0.10926154  0.06308218  0.00000000       0.025
   0.14568206  0.08410958  0.00000000       0.025
   0.03642051  0.06308218  0.00000000       0.025
   0.07284103  0.08410958  0.00000000       0.049
   0.10926154  0.10513697  0.00000000       0.049
   0.14568206  0.12616436  0.00000000       0.025
   0.07284103  0.12616436  0.00000000       0.025
   0.10926154  0.14719176  0.00000000       0.049
   0.10926154  0.18924655  0.00000000       0.008
   0.00000000  0.00000000  0.03602814       0.008
   0.03642051  0.02102739  0.03602814       0.049
   0.07284103  0.04205479  0.03602814       0.049
   0.10926154  0.06308218  0.03602814       0.049
   0.14568206  0.08410958  0.03602814       0.049
   0.03642051  0.06308218  0.03602814       0.049
   0.07284103  0.08410958  0.03602814       0.099
   0.10926154  0.10513697  0.03602814       0.099
   0.14568206  0.12616436  0.03602814       0.049
   0.07284103  0.12616436  0.03602814       0.049
   0.10926154  0.14719176  0.03602814       0.099
   0.10926154  0.18924655  0.03602814       0.016
 
 k-points in reciprocal lattice and weights: K                                       
   0.00000000  0.00000000  0.00000000       0.004
   0.11111111 -0.00000000  0.00000000       0.025
   0.22222222 -0.00000000  0.00000000       0.025
   0.33333333 -0.00000000  0.00000000       0.025
   0.44444444 -0.00000000  0.00000000       0.025
   0.11111111  0.11111111  0.00000000       0.025
   0.22222222  0.11111111  0.00000000       0.049
   0.33333333  0.11111111  0.00000000       0.049
   0.44444444  0.11111111  0.00000000       0.025
   0.22222222  0.22222222  0.00000000       0.025
   0.33333333  0.22222222  0.00000000       0.049
   0.33333333  0.33333333  0.00000000       0.008
   0.00000000  0.00000000  0.33333333       0.008
   0.11111111 -0.00000000  0.33333333       0.049
   0.22222222 -0.00000000  0.33333333       0.049
   0.33333333 -0.00000000  0.33333333       0.049
   0.44444444 -0.00000000  0.33333333       0.049
   0.11111111  0.11111111  0.33333333       0.049
   0.22222222  0.11111111  0.33333333       0.099
   0.33333333  0.11111111  0.33333333       0.099
   0.44444444  0.11111111  0.33333333       0.049
   0.22222222  0.22222222  0.33333333       0.049
   0.33333333  0.22222222  0.33333333       0.099
   0.33333333  0.33333333  0.33333333       0.016
 
 position of ions in fractional coordinates (direct lattice) 
   0.00000000  0.00000000  0.00000000
   0.00000000  0.00000000  0.50000000
   0.33333334  0.66666669  0.75000000
   0.66666663  0.33333331  0.25000000
   0.33333334  0.66666669  0.88413959
   0.66666663  0.33333331  0.11586041
   0.66666663  0.33333331  0.38413959
   0.33333334  0.66666669  0.61586041
 
 position of ions in cartesian coordinates  (Angst):
   0.00000000  0.00000000  0.00000000
   0.00000000  0.00000000  4.62601340
  -0.00000000  1.76137082  6.93902010
   1.52539174  0.88068533  2.31300670
  -0.00000000  1.76137082  8.18008322
   1.52539174  0.88068533  1.07194358
   1.52539174  0.88068533  3.55406982
  -0.00000000  1.76137082  5.69795698
 


--------------------------------------------------------------------------------------------------------


 k-point  1 :   0.0000 0.0000 0.0000  plane waves:    1953
 k-point  2 :   0.1111-0.0000 0.0000  plane waves:    1917
 k-point  3 :   0.2222-0.0000 0.0000  plane waves:    1894
 k-point  4 :   0.3333-0.0000 0.0000  plane waves:    1896
 k-point  5 :   0.4444-0.0000 0.0000  plane waves:    1882
 k-point  6 :   0.1111 0.1111 0.0000  plane waves:    1901
 k-point  7 :   0.2222 0.1111 0.0000  plane waves:    1902
 k-point  8 :   0.3333 0.1111 0.0000  plane waves:    1885
 k-point  9 :   0.4444 0.1111 0.0000  plane waves:    1872
 k-point 10 :   0.2222 0.2222 0.0000  plane waves:    1894
 k-point 11 :   0.3333 0.2222 0.0000  plane waves:    1877
 k-point 12 :   0.3333 0.3333 0.0000  plane waves:    1896
 k-point 13 :   0.0000 0.0000 0.3333  plane waves:    1912
 k-point 14 :   0.1111-0.0000 0.3333  plane waves:    1918
 k-point 15 :   0.2222-0.0000 0.3333  plane waves:    1909
 k-point 16 :   0.3333-0.0000 0.3333  plane waves:    1891
 k-point 17 :   0.4444-0.0000 0.3333  plane waves:    1880
 k-point 18 :   0.1111 0.1111 0.3333  plane waves:    1910
 k-point 19 :   0.2222 0.1111 0.3333  plane waves:    1897
 k-point 20 :   0.3333 0.1111 0.3333  plane waves:    1889
 k-point 21 :   0.4444 0.1111 0.3333  plane waves:    1872
 k-point 22 :   0.2222 0.2222 0.3333  plane waves:    1890
 k-point 23 :   0.3333 0.2222 0.3333  plane waves:    1888
 k-point 24 :   0.3333 0.3333 0.3333  plane waves:    1890

 maximum and minimum number of plane-waves per node :       261      222

 maximum number of plane-waves:      1953
 maximum index in each direction: 
   IXMAX=    5   IYMAX=    5   IZMAX=   16
   IXMIN=   -6   IYMIN=   -5   IZMIN=  -17

 NGX is ok and might be reduce to  24
 NGY is ok and might be reduce to  22
 NGZ is ok and might be reduce to  68

 parallel 3D FFT for wavefunctions:
    minimum data exchange during FFTs selected (reduces bandwidth)
 parallel 3D FFT for charge:
    minimum data exchange during FFTs selected (reduces bandwidth)


 FFT grid for exact exchange (Hartree Fock) 
  NGX = 18; NGY = 18; NGZ = 54

 
 Radii for the augmentation spheres in the non-local exchange
 for species   1 augmentation radius   1.077 (default was   0.861)
       energy cutoff for augmentation   2000.0
 for species   2 augmentation radius   0.874 (default was   0.699)
       energy cutoff for augmentation   2000.0
 for species   3 augmentation radius   0.886 (default was   0.709)
       energy cutoff for augmentation   2000.0

 real space projection operators:
  total allocation   :        774.58 KBytes
  max/ min on nodes  :        137.69         81.28

 Maximum index for augmentation-charges in exchange          242
  SETUP_FOCK is finished

 total amount of memory used by VASP on root node    39294. kBytes
========================================================================

   base      :      30000. kBytes
   nonl-proj :       3358. kBytes
   fftplans  :        542. kBytes
   grid      :       1003. kBytes
   one-center:         31. kBytes
   HF        :         64. kBytes
   nonlr-proj:        336. kBytes
   wavefun   :       3960. kBytes
 
     INWAV:  cpu time    0.9681: real time    1.0445
 Broyden mixing: mesh for mixing (old mesh)
   NGX = 11   NGY = 11   NGZ = 33
  (NGX  = 48   NGY  = 48   NGZ  =140)
  gives a total of   3993 points

 charge density for first step will be calculated from the start-wavefunctions


--------------------------------------------------------------------------------------------------------


 BZINTS: Fermi energy:  4.566230; 60.000000 electrons
         Band energy:-871.611245;  BLOECHL correction:  0.000000
 Maximum index for augmentation-charges          553 (set IRDMAX)


--------------------------------------------------------------------------------------------------------


 initial charge from wavefunction
 First call to EWALD:  gamma=   0.421
 Maximum number of real-space cells 4x 4x 2
 Maximum number of reciprocal cells 2x 2x 5

 FEWALD executed in parallel
    FEWALD:  cpu time    0.0000: real time    0.0018

 ----------------------------------------------------------------------------- 
|                                                                             |
|           W    W    AA    RRRRR   N    N  II  N    N   GGGG   !!!           |
|           W    W   A  A   R    R  NN   N  II  NN   N  G    G  !!!           |
|           W    W  A    A  R    R  N N  N  II  N N  N  G       !!!           |
|           W WW W  AAAAAA  RRRRR   N  N N  II  N  N N  G  GGG   !            |
|           WW  WW  A    A  R   R   N   NN  II  N   NN  G    G                |
|           W    W  A    A  R    R  N    N  II  N    N   GGGG   !!!           |
|                                                                             |
|      ALGO=A and IALGO=5X tend to fail with the tetrahedron method           |
|      (e.g. Bloechls method ISMEAR=-5 is not variational)                    |
|      please switch to IMSEAR=0-n, except for DOS calculations               |
|      For DOS calculations use IALGO=53 after preconverging with ISMEAR>=0   |
|          I HOPE YOU KNOW, WHAT YOU ARE  DOING                               |
|                                                                             |
 ----------------------------------------------------------------------------- 



----------------------------------------- Iteration    1(   1)  ---------------------------------------


    POTLOK:  cpu time    0.0920: real time    0.0969
    SETDIJ:  cpu time    0.2040: real time    0.2053
    TRIAL :  cpu time  589.1648: real time  590.1373
 BZINTS: Fermi energy:  4.563729; 60.000000 electrons
         Band energy:-871.714029;  BLOECHL correction:  0.000000
 BZINTS: Fermi energy:  4.563729; 60.000000 electrons
         Band energy:-871.721207;  BLOECHL correction:  0.000000
    CORREC:  cpu time  578.9042: real time  579.9762
    CHARGE:  cpu time    0.6040: real time    0.6062
    --------------------------------------------
      LOOP:  cpu time 1168.9691: real time 1171.0256

 eigenvalue-minimisations  :     0
 total energy-change (2. order) :-0.7211787E+02  (-0.7302533E-03)
 number of electron      59.9999987 magnetization       0.0000000
 augmentation part       20.0862831 magnetization       0.0000002

 Free energy of the ion-electron system (eV)
  ---------------------------------------------------
  alpha Z        PSCENC =       271.85479741
  Ewald energy   TEWEN  =     -4888.57405182
  -Hartree energ DENC   =     -3036.10903173
  -exchange      EXHF   =       152.78485102
  -V(xc)+E(xc)   XCENC  =       231.31255291
  PAW double counting   =      9541.67652548    -9809.22293937
  entropy T*S    EENTRO =         0.00000000
  eigenvalues    EBANDS =      -872.25357414
  atomic energy  EATOM  =      8336.41299893
  ---------------------------------------------------
  free energy    TOTEN  =       -72.11787131 eV

  energy without entropy =      -72.11787131  energy(sigma->0) =      -72.11787131
  exchange ACFDT corr.  =         0.00000000  see jH, gK, PRB 81, 115126


--------------------------------------------------------------------------------------------------------




----------------------------------------- Iteration    1(   2)  ---------------------------------------


    POTLOK:  cpu time    0.0800: real time    0.0779
    SETDIJ:  cpu time    0.2040: real time    0.2043
    TRIAL :  cpu time  590.3609: real time  591.4743
 BZINTS: Fermi energy:  4.566230; 60.000000 electrons
         Band energy:-871.602280;  BLOECHL correction:  0.000000
 BZINTS: Fermi energy:  4.563729; 60.000000 electrons
         Band energy:-871.640408;  BLOECHL correction:  0.000000
    CORREC:  cpu time  578.4281: real time  579.4150
    CHARGE:  cpu time    0.6040: real time    0.6025
    --------------------------------------------
      LOOP:  cpu time 1169.6771: real time 1171.7794

 eigenvalue-minimisations  :     0
 total energy-change (2. order) :-0.7299533E-03  (-0.1365686E-03)
 number of electron      59.9999987 magnetization       0.0000000
 augmentation part       20.0838739 magnetization       0.0000002

 Free energy of the ion-electron system (eV)
  ---------------------------------------------------
  alpha Z        PSCENC =       271.85479741
  Ewald energy   TEWEN  =     -4888.57405182
  -Hartree energ DENC   =     -3037.45162660
  -exchange      EXHF   =       152.82991552
  -V(xc)+E(xc)   XCENC  =       231.37271358
  PAW double counting   =      9543.67568252    -9811.44834025
  entropy T*S    EENTRO =         0.00000000
  eigenvalues    EBANDS =      -870.79069055
  atomic energy  EATOM  =      8336.41299893
  ---------------------------------------------------
  free energy    TOTEN  =       -72.11860127 eV

  energy without entropy =      -72.11860127  energy(sigma->0) =      -72.11860127
  exchange ACFDT corr.  =         0.00000000  see jH, gK, PRB 81, 115126


--------------------------------------------------------------------------------------------------------




----------------------------------------- Iteration    1(   3)  ---------------------------------------


    POTLOK:  cpu time    0.0760: real time    0.0780
    SETDIJ:  cpu time    0.2040: real time    0.2036
    TRIAL :  cpu time  578.0121: real time  579.0408
 BZINTS: Fermi energy:  4.566230; 60.000000 electrons
         Band energy:-871.553700;  BLOECHL correction:  0.000000
 BZINTS: Fermi energy:  4.568730; 60.000000 electrons
         Band energy:-871.499420;  BLOECHL correction:  0.000000
    CORREC:  cpu time  578.5442: real time  579.5410
    CHARGE:  cpu time    0.6120: real time    0.6137
    --------------------------------------------
      LOOP:  cpu time 1157.4483: real time 1159.5053

 eigenvalue-minimisations  :     0
 total energy-change (2. order) :-0.1362980E-03  (-0.8422179E-04)
 number of electron      59.9999987 magnetization       0.0000000
 augmentation part       20.0833136 magnetization       0.0000000

 Free energy of the ion-electron system (eV)
  ---------------------------------------------------
  alpha Z        PSCENC =       271.85479741
  Ewald energy   TEWEN  =     -4888.57405182
  -Hartree energ DENC   =     -3037.07941070
  -exchange      EXHF   =       152.83427473
  -V(xc)+E(xc)   XCENC  =       231.36892051
  PAW double counting   =      9542.69696126    -9810.34971060
  entropy T*S    EENTRO =         0.00000000
  eigenvalues    EBANDS =      -871.28351728
  atomic energy  EATOM  =      8336.41299893
  ---------------------------------------------------
  free energy    TOTEN  =       -72.11873757 eV

  energy without entropy =      -72.11873757  energy(sigma->0) =      -72.11873757
  exchange ACFDT corr.  =         0.00000000  see jH, gK, PRB 81, 115126


--------------------------------------------------------------------------------------------------------




----------------------------------------- Iteration    1(   4)  ---------------------------------------


    POTLOK:  cpu time    0.0800: real time    0.0780
    SETDIJ:  cpu time    0.2040: real time    0.2041
    TRIAL :  cpu time  582.4324: real time  583.4803
 BZINTS: Fermi energy:  4.571230; 60.000000 electrons
         Band energy:-871.406275;  BLOECHL correction:  0.000000
 BZINTS: Fermi energy:  4.571230; 60.000000 electrons
         Band energy:-871.420366;  BLOECHL correction:  0.000000
    CORREC:  cpu time  583.7525: real time  584.7755
    CHARGE:  cpu time    0.6040: real time    0.6058
    --------------------------------------------
      LOOP:  cpu time 1167.0729: real time 1169.1723

 eigenvalue-minimisations  :     0
 total energy-change (2. order) :-0.8387153E-04  (-0.2861605E-04)
 number of electron      59.9999987 magnetization       0.0000000
 augmentation part       20.0838528 magnetization       0.0000001

 Free energy of the ion-electron system (eV)
  ---------------------------------------------------
  alpha Z        PSCENC =       271.85479741
  Ewald energy   TEWEN  =     -4888.57405182
  -Hartree energ DENC   =     -3037.11068692
  -exchange      EXHF   =       152.83883332
  -V(xc)+E(xc)   XCENC  =       231.36953360
  PAW double counting   =      9544.70195714    -9812.33279312
  entropy T*S    EENTRO =         0.00000000
  eigenvalues    EBANDS =      -871.27940997
  atomic energy  EATOM  =      8336.41299893
  ---------------------------------------------------
  free energy    TOTEN  =       -72.11882144 eV

  energy without entropy =      -72.11882144  energy(sigma->0) =      -72.11882144
  exchange ACFDT corr.  =         0.00000000  see jH, gK, PRB 81, 115126


--------------------------------------------------------------------------------------------------------




----------------------------------------- Iteration    1(   5)  ---------------------------------------


    POTLOK:  cpu time    0.0800: real time    0.0779
    SETDIJ:  cpu time    0.2040: real time    0.2043
    TRIAL :  cpu time  577.2081: real time  578.2504
 BZINTS: Fermi energy:  4.573730; 60.000000 electrons
         Band energy:-871.333630;  BLOECHL correction:  0.000000
 BZINTS: Fermi energy:  4.573730; 60.000000 electrons
         Band energy:-871.298058;  BLOECHL correction:  0.000000
    CORREC:  cpu time  578.1081: real time  579.1487
    CHARGE:  cpu time    0.6040: real time    0.6030
    --------------------------------------------
      LOOP:  cpu time 1156.2043: real time 1158.2910

 eigenvalue-minimisations  :     0
 total energy-change (2. order) :-0.2868709E-04  (-0.1847456E-04)
 number of electron      59.9999987 magnetization       0.0000000
 augmentation part       20.0837674 magnetization       0.0000000

 Free energy of the ion-electron system (eV)
  ---------------------------------------------------
  alpha Z        PSCENC =       271.85479741
  Ewald energy   TEWEN  =     -4888.57405182
  -Hartree energ DENC   =     -3037.26129229
  -exchange      EXHF   =       152.84256286
  -V(xc)+E(xc)   XCENC  =       231.37330012
  PAW double counting   =      9546.01972523    -9813.67838176
  entropy T*S    EENTRO =         0.00000000
  eigenvalues    EBANDS =      -871.10850880
  atomic energy  EATOM  =      8336.41299893
  ---------------------------------------------------
  free energy    TOTEN  =       -72.11885012 eV

  energy without entropy =      -72.11885012  energy(sigma->0) =      -72.11885012
  exchange ACFDT corr.  =         0.00000000  see jH, gK, PRB 81, 115126


--------------------------------------------------------------------------------------------------------




----------------------------------------- Iteration    1(   6)  ---------------------------------------


    POTLOK:  cpu time    0.0800: real time    0.0779
    SETDIJ:  cpu time    0.2040: real time    0.2042
    TRIAL :  cpu time  593.1131: real time  594.1986
 BZINTS: Fermi energy:  4.576230; 60.000000 electrons
         Band energy:-871.220358;  BLOECHL correction:  0.000000
 BZINTS: Fermi energy:  4.576230; 60.000000 electrons
         Band energy:-871.226191;  BLOECHL correction:  0.000000
    CORREC:  cpu time  621.8589: real time  622.9113
    CHARGE:  cpu time    0.6120: real time    0.6131
    --------------------------------------------
      LOOP:  cpu time 1215.8680: real time 1218.0373

 eigenvalue-minimisations  :     0
 total energy-change (2. order) :-0.1831879E-04  (-0.6991540E-05)
 number of electron      59.9999987 magnetization       0.0000000
 augmentation part       20.0836115 magnetization      -0.0000000

 Free energy of the ion-electron system (eV)
  ---------------------------------------------------
  alpha Z        PSCENC =       271.85479741
  Ewald energy   TEWEN  =     -4888.57405182
  -Hartree energ DENC   =     -3037.23744437
  -exchange      EXHF   =       152.84512342
  -V(xc)+E(xc)   XCENC  =       231.37406593
  PAW double counting   =      9546.34082469    -9814.00048094
  entropy T*S    EENTRO =         0.00000000
  eigenvalues    EBANDS =      -871.13470169
  atomic energy  EATOM  =      8336.41299893
  ---------------------------------------------------
  free energy    TOTEN  =       -72.11886844 eV

  energy without entropy =      -72.11886844  energy(sigma->0) =      -72.11886844
  exchange ACFDT corr.  =         0.00000000  see jH, gK, PRB 81, 115126


--------------------------------------------------------------------------------------------------------




----------------------------------------- Iteration    1(   7)  ---------------------------------------


    POTLOK:  cpu time    0.0800: real time    0.0780
    SETDIJ:  cpu time    0.2040: real time    0.2044
    TRIAL :  cpu time  606.6979: real time  607.7308
 BZINTS: Fermi energy:  4.576230; 60.000000 electrons
         Band energy:-871.194136;  BLOECHL correction:  0.000000
 BZINTS: Fermi energy:  4.576230; 60.000000 electrons
         Band energy:-871.194992;  BLOECHL correction:  0.000000
    CORREC:  cpu time  604.1818: real time  605.2163
    CHARGE:  cpu time    0.6080: real time    0.6117
    --------------------------------------------
      LOOP:  cpu time 1211.7717: real time 1213.8466

 eigenvalue-minimisations  :     0
 total energy-change (2. order) :-0.7000033E-05  (-0.2474854E-05)
 number of electron      59.9999987 magnetization       0.0000000
 augmentation part       20.0837208 magnetization       0.0000000

 Free energy of the ion-electron system (eV)
  ---------------------------------------------------
  alpha Z        PSCENC =       271.85479741
  Ewald energy   TEWEN  =     -4888.57405182
  -Hartree energ DENC   =     -3037.18967754
  -exchange      EXHF   =       152.84605249
  -V(xc)+E(xc)   XCENC  =       231.37377352
  PAW double counting   =      9546.23839112    -9813.89320157
  entropy T*S    EENTRO =         0.00000000
  eigenvalues    EBANDS =      -871.18795798
  atomic energy  EATOM  =      8336.41299893
  ---------------------------------------------------
  free energy    TOTEN  =       -72.11887544 eV

  energy without entropy =      -72.11887544  energy(sigma->0) =      -72.11887544
  exchange ACFDT corr.  =         0.00000000  see jH, gK, PRB 81, 115126


--------------------------------------------------------------------------------------------------------




----------------------------------------- Iteration    1(   8)  ---------------------------------------


    POTLOK:  cpu time    0.0760: real time    0.0780
    SETDIJ:  cpu time    0.2040: real time    0.2051
    TRIAL :  cpu time  603.9417: real time  605.0044
 BZINTS: Fermi energy:  4.576230; 60.000000 electrons
         Band energy:-871.179712;  BLOECHL correction:  0.000000
 BZINTS: Fermi energy:  4.576230; 60.000000 electrons
         Band energy:-871.183490;  BLOECHL correction:  0.000000
    CORREC:  cpu time  599.5495: real time  600.6104
    CHARGE:  cpu time    0.6040: real time    0.6040
    --------------------------------------------
      LOOP:  cpu time 1204.3793: real time 1206.5308

 eigenvalue-minimisations  :     0
 total energy-change (2. order) :-0.2471945E-05  (-0.6773387E-06)
 number of electron      59.9999987 magnetization       0.0000000
 augmentation part       20.0837419 magnetization       0.0000000

 Free energy of the ion-electron system (eV)
  ---------------------------------------------------
  alpha Z        PSCENC =       271.85479741
  Ewald energy   TEWEN  =     -4888.57405182
  -Hartree energ DENC   =     -3037.20616693
  -exchange      EXHF   =       152.84675404
  -V(xc)+E(xc)   XCENC  =       231.37435896
  PAW double counting   =      9546.30103868    -9813.96133497
  entropy T*S    EENTRO =         0.00000000
  eigenvalues    EBANDS =      -871.16727221
  atomic energy  EATOM  =      8336.41299893
  ---------------------------------------------------
  free energy    TOTEN  =       -72.11887792 eV

  energy without entropy =      -72.11887792  energy(sigma->0) =      -72.11887792
  exchange ACFDT corr.  =         0.00000000  see jH, gK, PRB 81, 115126


--------------------------------------------------------------------------------------------------------




----------------------------------------- Iteration    1(   9)  ---------------------------------------


    POTLOK:  cpu time    0.0760: real time    0.0781
    SETDIJ:  cpu time    0.2040: real time    0.2033
    TRIAL :  cpu time  600.0375: real time  601.0826
 BZINTS: Fermi energy:  4.576230; 60.000000 electrons
         Band energy:-871.174597;  BLOECHL correction:  0.000000
 BZINTS: Fermi energy:  4.576230; 60.000000 electrons
         Band energy:-871.172552;  BLOECHL correction:  0.000000
    CORREC:  cpu time  580.4163: real time  581.3887
    CHARGE:  cpu time    0.6000: real time    0.6103
    --------------------------------------------
      LOOP:  cpu time 1181.3338: real time 1183.3691

 eigenvalue-minimisations  :     0
 total energy-change (2. order) :-0.6636274E-06  (-0.3610514E-06)
 number of electron      59.9999987 magnetization       0.0000000
 augmentation part       20.0837124 magnetization       0.0000000

 Free energy of the ion-electron system (eV)
  ---------------------------------------------------
  alpha Z        PSCENC =       271.85479741
  Ewald energy   TEWEN  =     -4888.57405182
  -Hartree energ DENC   =     -3037.21364405
  -exchange      EXHF   =       152.84697438
  -V(xc)+E(xc)   XCENC  =       231.37452049
  PAW double counting   =      9546.30220430    -9813.96392485
  entropy T*S    EENTRO =         0.00000000
  eigenvalues    EBANDS =      -871.15875337
  atomic energy  EATOM  =      8336.41299893
  ---------------------------------------------------
  free energy    TOTEN  =       -72.11887858 eV

  energy without entropy =      -72.11887858  energy(sigma->0) =      -72.11887858
  exchange ACFDT corr.  =         0.00000000  see jH, gK, PRB 81, 115126


--------------------------------------------------------------------------------------------------------


  average scaling for gradient   0.9474


 average (electrostatic) potential at core
  the test charge radii are     0.8614  0.6991  0.7089
  (the norm of the test charge is              1.0000)
       1 -75.3030       2 -75.3030       3 -48.5211       4 -48.5211       5 -59.7612
       6 -59.7612       7 -59.7612       8 -59.7612
 
 
 
 E-fermi :   4.5762     XC(G=0):  -9.8815     alpha+bet :-11.6858


 spin component 1

 k-point     1 :       0.0000    0.0000    0.0000
  band No.  band energies     occupation 
      1     -63.7714      1.00000
      2     -63.7714      1.00000
      3     -63.6973      1.00000
      4     -61.2067      1.00000
      5     -61.1983      1.00000
      6     -61.1983      1.00000
      7     -16.6741      1.00000
      8     -16.3065      1.00000
      9     -14.6739      1.00000
     10     -13.9757      1.00000
     11      -6.4950      1.00000
     12      -5.0134      1.00000
     13      -2.2524      1.00000
     14      -1.7287      1.00000
     15      -1.7287      1.00000
     16      -0.6015      1.00000
     17       0.0316      1.00000
     18       0.0316      1.00000
     19       0.0595      1.00000
     20       0.0595      1.00000
     21       1.0294      1.00000
     22       1.0294      1.00000
     23       1.2533      1.00000
     24       2.2546      1.00000
     25       2.2546      1.00000
     26       2.3979      1.00000
     27       3.7626      1.00000
     28       3.7626      1.00000
     29       3.7769      1.00000
     30       3.7769      1.00000
     31       7.8698      0.00000
     32       7.8698      0.00000
     33       9.6575      0.00000
     34      10.0974      0.00000
     35      12.2532      0.00000
     36      12.2532      0.00000
     37      13.0385      0.00000
     38      13.0385      0.00000
     39      13.5940      0.00000
     40      14.9153      0.00000

 k-point     2 :       0.1111   -0.0000    0.0000
  band No.  band energies     occupation 
      1     -63.7728      1.00000
      2     -63.7716      1.00000
      3     -63.6968      1.00000
      4     -61.2061      1.00000
      5     -61.2000      1.00000
      6     -61.1986      1.00000
      7     -16.5747      1.00000
      8     -16.2326      1.00000
      9     -14.5813      1.00000
     10     -13.9365      1.00000
     11      -6.3289      1.00000
     12      -4.8861      1.00000
     13      -2.6997      1.00000
     14      -1.7088      1.00000
     15      -1.5669      1.00000
     16      -0.9577      1.00000
     17      -0.5853      1.00000
     18      -0.1764      1.00000
     19       0.1022      1.00000
     20       0.2338      1.00000
     21       0.9788      1.00000
     22       1.0814      1.00000
     23       1.2544      1.00000
     24       2.0984      1.00000
     25       2.2051      1.00000
     26       2.3649      1.00000
     27       3.5611      1.00000
     28       3.6402      1.00000
     29       3.6961      1.00000
     30       3.7779      1.00000
     31       7.7161      0.00000
     32       7.8496      0.00000
     33      10.2412      0.00000
     34      10.7738      0.00000
     35      11.5715      0.00000
     36      12.0177      0.00000
     37      12.6066      0.00000
     38      13.0549      0.00000
     39      14.2662      0.00000
     40      15.2791      0.00000

 k-point     3 :       0.2222   -0.0000    0.0000
  band No.  band energies     occupation 
      1     -63.7774      1.00000
      2     -63.7725      1.00000
      3     -63.6958      1.00000
      4     -61.2054      1.00000
      5     -61.2051      1.00000
      6     -61.1998      1.00000
      7     -16.3093      1.00000
      8     -16.0392      1.00000
      9     -14.3369      1.00000
     10     -13.8378      1.00000
     11      -5.8737      1.00000
     12      -4.5250      1.00000
     13      -3.3220      1.00000
     14      -1.9097      1.00000
     15      -1.7493      1.00000
     16      -1.6788      1.00000
     17      -1.6071      1.00000
     18      -0.5399      1.00000
     19       0.1547      1.00000
     20       0.3991      1.00000
     21       0.7485      1.00000
     22       1.1060      1.00000
     23       1.1120      1.00000
     24       1.8586      1.00000
     25       2.1706      1.00000
     26       2.3124      1.00000
     27       3.2453      1.00000
     28       3.3530      1.00000
     29       3.4859      1.00000
     30       3.7482      1.00000
     31       7.6554      0.00000
     32       7.8347      0.00000
     33       9.9960      0.00000
     34      11.4086      0.00000
     35      11.4692      0.00000
     36      11.7735      0.00000
     37      12.4475      0.00000
     38      13.0730      0.00000
     39      15.6874      0.00000
     40      16.0322      0.00000

 k-point     4 :       0.3333   -0.0000    0.0000
  band No.  band energies     occupation 
      1     -63.7824      1.00000
      2     -63.7737      1.00000
      3     -63.6953      1.00000
      4     -61.2112      1.00000
      5     -61.2045      1.00000
      6     -61.2013      1.00000
      7     -15.9764      1.00000
      8     -15.8093      1.00000
      9     -14.0333      1.00000
     10     -13.7319      1.00000
     11      -5.2733      1.00000
     12      -4.0123      1.00000
     13      -3.8314      1.00000
     14      -3.0155      1.00000
     15      -2.4223      1.00000
     16      -2.1770      1.00000
     17      -1.6937      1.00000
     18      -0.8307      1.00000
     19      -0.3419      1.00000
     20       0.1561      1.00000
     21       0.8804      1.00000
     22       0.9720      1.00000
     23       1.1840      1.00000
     24       1.7384      1.00000
     25       2.2187      1.00000
     26       2.2512      1.00000
     27       2.9593      1.00000
     28       3.1098      1.00000
     29       3.2542      1.00000
     30       3.7300      1.00000
     31       7.8666      0.00000
     32       7.9054      0.00000
     33       8.7157      0.00000
     34      10.5498      0.00000
     35      10.8768      0.00000
     36      12.6238      0.00000
     37      13.0872      0.00000
     38      13.4158      0.00000
     39      16.1135      0.00000
     40      16.6834      0.00000

 k-point     5 :       0.4444   -0.0000    0.0000
  band No.  band energies     occupation 
      1     -63.7857      1.00000
      2     -63.7744      1.00000
      3     -63.6947      1.00000
      4     -61.2151      1.00000
      5     -61.2038      1.00000
      6     -61.2023      1.00000
      7     -15.7236      1.00000
      8     -15.6666      1.00000
      9     -13.7938      1.00000
     10     -13.6910      1.00000
     11      -4.7740      1.00000
     12      -4.3039      1.00000
     13      -3.6412      1.00000
     14      -3.2816      1.00000
     15      -2.9292      1.00000
     16      -2.6918      1.00000
     17      -1.7393      1.00000
     18      -0.9684      1.00000
     19      -0.9687      1.00000
     20       0.1106      1.00000
     21       0.8633      1.00000
     22       0.9219      1.00000
     23       1.3658      1.00000
     24       1.6716      1.00000
     25       2.1236      1.00000
     26       2.2569      1.00000
     27       2.7608      1.00000
     28       2.8508      1.00000
     29       3.3088      1.00000
     30       3.7278      1.00000
     31       7.7252      0.00000
     32       7.9109      0.00000
     33       8.7188      0.00000
     34       9.5706      0.00000
     35      10.4930      0.00000
     36      12.7658      0.00000
     37      13.0984      0.00000
     38      13.5632      0.00000
     39      15.9723      0.00000
     40      16.9634      0.00000

 k-point     6 :       0.1111    0.1111    0.0000
  band No.  band energies     occupation 
      1     -63.7758      1.00000
      2     -63.7724      1.00000
      3     -63.6962      1.00000
      4     -61.2055      1.00000
      5     -61.2034      1.00000
      6     -61.1996      1.00000
      7     -16.3920      1.00000
      8     -16.0986      1.00000
      9     -14.4128      1.00000
     10     -13.8675      1.00000
     11      -6.0174      1.00000
     12      -4.6411      1.00000
     13      -3.1538      1.00000
     14      -1.7679      1.00000
     15      -1.6484      1.00000
     16      -1.4744      1.00000
     17      -1.3425      1.00000
     18      -0.5151      1.00000
     19       0.0606      1.00000
     20       0.4553      1.00000
     21       0.9439      1.00000
     22       0.9802      1.00000
     23       1.1849      1.00000
     24       1.9229      1.00000
     25       2.1098      1.00000
     26       2.3407      1.00000
     27       3.3961      1.00000
     28       3.3990      1.00000
     29       3.5064      1.00000
     30       3.7647      1.00000
     31       7.6902      0.00000
[...]
     20      -0.1511      1.00000
     21       0.4841      1.00000
     22       0.9869      1.00000
     23       1.4326      1.00000
     24       1.6295      1.00000
     25       1.8165      1.00000
     26       2.2125      1.00000
     27       2.8030      1.00000
     28       2.8810      1.00000
     29       3.2883      1.00000
     30       3.8179      1.00000
     31       7.4434      0.00000
     32       7.8881      0.00000
     33       8.8419      0.00000
     34       9.4355      0.00000
     35      10.9987      0.00000
     36      12.1834      0.00000
     37      13.3497      0.00000
     38      13.7564      0.00000
     39      16.5508      0.00000
     40      16.7567      0.00000

 k-point    22 :       0.2222    0.2222    0.3333
  band No.  band energies     occupation 
      1     -63.7826      1.00000
      2     -63.7763      1.00000
      3     -63.6949      1.00000
      4     -61.2115      1.00000
      5     -61.2044      1.00000
      6     -61.2040      1.00000
      7     -15.7972      1.00000
      8     -15.7367      1.00000
      9     -13.8440      1.00000
     10     -13.7347      1.00000
     11      -4.7659      1.00000
     12      -4.2697      1.00000
     13      -3.6108      1.00000
     14      -3.2250      1.00000
     15      -2.4421      1.00000
     16      -2.1656      1.00000
     17      -1.9055      1.00000
     18      -1.6918      1.00000
     19      -0.4929      1.00000
     20       0.0287      1.00000
     21       0.5930      1.00000
     22       1.0343      1.00000
     23       1.2550      1.00000
     24       1.8589      1.00000
     25       1.9018      1.00000
     26       2.2787      1.00000
     27       2.4194      1.00000
     28       2.9787      1.00000
     29       3.3039      1.00000
     30       3.8646      1.00000
     31       7.2629      0.00000
     32       7.9585      0.00000
     33       9.3737      0.00000
     34       9.7712      0.00000
     35      11.4783      0.00000
     36      11.5993      0.00000
     37      14.0565      0.00000
     38      14.5544      0.00000
     39      15.9286      0.00000
     40      16.2644      0.00000

 k-point    23 :       0.3333    0.2222    0.3333
  band No.  band energies     occupation 
      1     -63.7837      1.00000
      2     -63.7783      1.00000
      3     -63.6946      1.00000
      4     -61.2130      1.00000
      5     -61.2067      1.00000
      6     -61.2037      1.00000
      7     -15.6212      1.00000
      8     -15.6022      1.00000
      9     -13.7004      1.00000
     10     -13.6657      1.00000
     11      -4.2883      1.00000
     12      -4.1347      1.00000
     13      -3.6079      1.00000
     14      -3.4202      1.00000
     15      -2.7458      1.00000
     16      -2.4049      1.00000
     17      -2.2271      1.00000
     18      -2.1381      1.00000
     19      -0.5316      1.00000
     20      -0.3832      1.00000
     21       0.5142      1.00000
     22       1.0203      1.00000
     23       1.3907      1.00000
     24       1.5859      1.00000
     25       1.7995      1.00000
     26       2.2631      1.00000
     27       2.4812      1.00000
     28       2.7861      1.00000
     29       3.3030      1.00000
     30       3.6986      1.00000
     31       7.3894      0.00000
     32       7.9182      0.00000
     33       8.9525      0.00000
     34       9.6242      0.00000
     35      10.8709      0.00000
     36      11.3923      0.00000
     37      14.7360      0.00000
     38      15.0592      0.00000
     39      16.3653      0.00000
     40      16.6746      0.00000

 k-point    24 :       0.3333    0.3333    0.3333
  band No.  band energies     occupation 
      1     -63.7816      1.00000
      2     -63.7816      1.00000
      3     -63.6944      1.00000
      4     -61.2105      1.00000
      5     -61.2105      1.00000
      6     -61.2035      1.00000
      7     -15.5584      1.00000
      8     -15.5584      1.00000
      9     -13.6462      1.00000
     10     -13.6462      1.00000
     11      -4.0757      1.00000
     12      -4.0757      1.00000
     13      -3.2166      1.00000
     14      -3.2166      1.00000
     15      -3.0710      1.00000
     16      -2.6805      1.00000
     17      -2.4796      1.00000
     18      -2.4796      1.00000
     19      -0.4635      1.00000
     20      -0.4635      1.00000
     21       0.2165      1.00000
     22       1.1521      1.00000
     23       1.4447      1.00000
     24       1.6502      1.00000
     25       1.6502      1.00000
     26       2.3413      1.00000
     27       2.3413      1.00000
     28       2.5577      1.00000
     29       3.4782      1.00000
     30       3.4782      1.00000
     31       7.6990      0.00000
     32       7.6990      0.00000
     33       8.6886      0.00000
     34      10.0192      0.00000
     35      10.7502      0.00000
     36      10.7502      0.00000
     37      16.1142      0.00000
     38      16.1142      0.00000
     39      16.1305      0.00000
     40      16.2870      0.00000


--------------------------------------------------------------------------------------------------------


 soft charge-density along one line, spin component           1
         0         1         2         3         4         5         6         7         8         9
 total charge-density along one line
 
 soft charge-density along one line, spin component           2
         0         1         2         3         4         5         6         7         8         9
 total charge-density along one line
 
 pseudopotential strength for first ion, spin component:           1
-61.321  -0.000   0.000   9.844   0.000  -0.000  -0.000  -0.000
 -0.000 -61.272   0.000   0.000   9.820  -0.000  -0.000   0.000
  0.000   0.000 -61.321  -0.000  -0.000   9.844   0.000  -0.000
  9.844   0.000  -0.000   5.534  -0.000   0.000   0.000   0.000
  0.000   9.820  -0.000  -0.000   5.540   0.000   0.000  -0.000
 -0.000  -0.000   9.844   0.000   0.000   5.534  -0.000   0.000
 -0.000  -0.000   0.000   0.000   0.000  -0.000  -5.335   0.000
 -0.000   0.000  -0.000   0.000  -0.000   0.000   0.000  -5.519
 -0.000  -0.000   0.000   0.000   0.000  -0.000  -0.000   0.000
 -0.000  -0.000  -0.000   0.000   0.000   0.000  -0.322  -0.000
 -0.000   0.000  -0.000   0.000  -0.000   0.000  -0.000  -0.322
 -0.000  -0.000   0.000   0.000   0.000  -0.000  -5.937   0.000
 -0.000   0.000  -0.000   0.000  -0.000   0.000   0.000  -6.119
 -0.000  -0.000   0.000   0.000   0.000  -0.000  -0.000   0.000
 -0.000  -0.000  -0.000   0.000   0.000   0.000  -0.319  -0.000
 -0.000   0.000  -0.000   0.000  -0.000   0.000  -0.000  -0.319
 -0.000   0.000   0.000   0.000  -0.000   0.000  -0.000   0.000
 -0.000   0.000   0.000   0.000  -0.000   0.000  -0.000   0.000
 pseudopotential strength for first ion, spin component:           2
-59.822  -0.000   0.000   9.177   0.000  -0.000  -0.000   0.000
 -0.000 -59.817  -0.000   0.000   9.174   0.000  -0.000   0.000
  0.000  -0.000 -59.822  -0.000   0.000   9.177   0.000  -0.000
  9.177   0.000  -0.000   5.771  -0.000   0.000   0.000  -0.000
  0.000   9.174   0.000  -0.000   5.771  -0.000   0.000  -0.000
 -0.000   0.000   9.177   0.000  -0.000   5.771  -0.000   0.000
 -0.000  -0.000   0.000   0.000   0.000  -0.000  -4.148  -0.000
  0.000   0.000  -0.000  -0.000  -0.000   0.000  -0.000  -4.078
 -0.000   0.000   0.000   0.000  -0.000  -0.000  -0.000  -0.000
 -0.000  -0.000   0.000   0.000   0.000  -0.000   0.093  -0.000
 -0.000   0.000  -0.000   0.000  -0.000   0.000  -0.000   0.093
 -0.000  -0.000   0.000   0.000   0.000  -0.000  -4.766  -0.000
  0.000   0.000  -0.000  -0.000  -0.000   0.000  -0.000  -4.698
 -0.000   0.000   0.000   0.000  -0.000  -0.000  -0.000  -0.000
 -0.000  -0.000   0.000   0.000   0.000  -0.000   0.090  -0.000
 -0.000   0.000  -0.000   0.000  -0.000   0.000  -0.000   0.090
 -0.000  -0.000   0.000  -0.000  -0.000   0.000  -0.000   0.000
 -0.000  -0.000   0.000  -0.000  -0.000   0.000  -0.000   0.000
 total augmentation occupancy for first ion, spin component:           1
  1.997  -0.000  -0.000  -0.016  -0.000  -0.000   0.000  -0.000   0.000  -0.000   0.000  -0.000   0.000  -0.000   0.000  -0.000
 -0.000   1.997   0.000  -0.000  -0.016   0.000  -0.000  -0.000  -0.000   0.000   0.000   0.000   0.000   0.000  -0.000  -0.000
 -0.000   0.000   1.997  -0.000   0.000  -0.016  -0.000  -0.000  -0.000  -0.000   0.000   0.000   0.000   0.000   0.000  -0.000
 -0.016  -0.000  -0.000   0.111   0.000   0.000  -0.000   0.000  -0.000  -0.000  -0.000   0.000  -0.000   0.000   0.000   0.000
 -0.000  -0.016   0.000   0.000   0.102  -0.000  -0.000   0.000   0.000  -0.000   0.000   0.000  -0.000  -0.000   0.000  -0.000
 -0.000   0.000  -0.016   0.000  -0.000   0.111   0.000  -0.000   0.000   0.000  -0.000  -0.000   0.000  -0.000  -0.000   0.000
  0.000  -0.000  -0.000  -0.000  -0.000   0.000   7.047  -0.000   0.000   1.941   0.000  -4.509   0.000  -0.000  -2.540  -0.000
 -0.000  -0.000  -0.000   0.000   0.000  -0.000  -0.000   7.329   0.000   0.000   1.941   0.000  -5.275  -0.000  -0.000  -2.530
  0.000  -0.000  -0.000  -0.000   0.000   0.000   0.000   0.000   5.131  -0.000  -0.000  -0.000  -0.000  -2.172   0.000   0.000
 -0.000   0.000  -0.000  -0.000  -0.000   0.000   1.941   0.000  -0.000   7.329  -0.000  -2.530  -0.000   0.000  -5.275   0.000
  0.000   0.000   0.000  -0.000   0.000  -0.000   0.000   1.941  -0.000  -0.000   7.047  -0.000  -2.540   0.000   0.000  -4.509
 -0.000   0.000   0.000   0.000   0.000  -0.000  -4.509   0.000  -0.000  -2.530  -0.000   3.763  -0.000  -0.000   2.739  -0.000
  0.000   0.000   0.000  -0.000  -0.000   0.000   0.000  -5.275  -0.000  -0.000  -2.540  -0.000   4.759   0.000   0.000   2.739
 -0.000   0.000   0.000   0.000  -0.000  -0.000  -0.000  -0.000  -2.172   0.000   0.000  -0.000   0.000   1.299  -0.000  -0.000
  0.000  -0.000   0.000   0.000   0.000  -0.000  -2.540  -0.000   0.000  -5.275   0.000   2.739   0.000  -0.000   4.759  -0.000
 -0.000  -0.000  -0.000   0.000  -0.000   0.000  -0.000  -2.530   0.000   0.000  -4.509  -0.000   2.739  -0.000  -0.000   3.763
 -0.000   0.000  -0.000   0.000  -0.000   0.000   0.000   0.000   0.229  -0.000  -0.000   0.000   0.000  -0.170   0.000  -0.000
  0.000  -0.000   0.000  -0.000   0.000  -0.000  -0.000  -0.000  -0.046   0.000   0.000   0.000   0.000   0.033  -0.000  -0.000
 total augmentation occupancy for first ion, spin component:           2
 -0.001   0.000   0.000  -0.007   0.000  -0.000   0.000  -0.000   0.000  -0.000   0.000  -0.000   0.000  -0.000   0.000  -0.000
  0.000  -0.001  -0.000   0.000  -0.007  -0.000  -0.000  -0.000  -0.000   0.000   0.000   0.000   0.000   0.000  -0.000  -0.000
  0.000  -0.000  -0.001   0.000  -0.000  -0.007  -0.000  -0.000  -0.000  -0.000   0.000   0.000   0.000   0.000   0.000  -0.000
 -0.007   0.000   0.000  -0.002  -0.000  -0.000  -0.000   0.000  -0.000   0.000  -0.000   0.000  -0.000   0.000  -0.000   0.000
  0.000  -0.007  -0.000  -0.000  -0.000   0.000   0.000   0.000   0.000  -0.000  -0.000  -0.000  -0.000  -0.000   0.000   0.000
 -0.000  -0.000  -0.007  -0.000   0.000  -0.002   0.000   0.000   0.000   0.000  -0.000  -0.000  -0.000  -0.000  -0.000   0.000
  0.000  -0.000  -0.000  -0.000   0.000   0.000   2.695  -0.000   0.000   2.465   0.000  -1.583   0.000  -0.000  -1.386  -0.000
 -0.000  -0.000  -0.000   0.000   0.000   0.000  -0.000   3.950  -0.000  -0.000   2.465   0.000  -2.215   0.000   0.000  -1.388
  0.000  -0.000  -0.000  -0.000   0.000   0.000   0.000  -0.000   0.877   0.000  -0.000  -0.000   0.000  -0.556  -0.000   0.000
 -0.000   0.000  -0.000   0.000  -0.000   0.000   2.465  -0.000   0.000   3.950   0.000  -1.388   0.000  -0.000  -2.215  -0.000
  0.000   0.000   0.000  -0.000  -0.000  -0.000   0.000   2.465  -0.000   0.000   2.695  -0.000  -1.386   0.000  -0.000  -1.583
 -0.000   0.000   0.000   0.000  -0.000  -0.000  -1.583   0.000  -0.000  -1.388  -0.000   0.802  -0.000   0.000   0.728   0.000
  0.000   0.000   0.000  -0.000  -0.000  -0.000   0.000  -2.215   0.000   0.000  -1.386  -0.000   1.063  -0.000  -0.000   0.728
 -0.000   0.000   0.000   0.000  -0.000  -0.000  -0.000   0.000  -0.556  -0.000   0.000   0.000  -0.000   0.258   0.000  -0.000
  0.000  -0.000   0.000  -0.000   0.000  -0.000  -1.386   0.000  -0.000  -2.215  -0.000   0.728  -0.000   0.000   1.063   0.000
 -0.000  -0.000  -0.000   0.000   0.000   0.000  -0.000  -1.388   0.000  -0.000  -1.583   0.000   0.728  -0.000   0.000   0.802
  0.000   0.000  -0.000  -0.000  -0.000   0.000   0.000  -0.000   0.057   0.000  -0.000  -0.000   0.000  -0.034  -0.000   0.000
 -0.000  -0.000   0.000   0.000   0.000  -0.000  -0.000   0.000  -0.015  -0.000   0.000   0.000  -0.000   0.006   0.000  -0.000


------------------------ aborting loop because EDIFF is reached ----------------------------------------


 


 total charge     
 
# of ion     s       p       d       tot
----------------------------------------
  1        0.221   6.219   7.891  14.331
  2        0.222   6.218   7.894  14.334
  3        0.939   1.736   0.000   2.676
  4        0.939   1.736   0.000   2.676
  5        1.260   2.643   0.000   3.904
  6        1.260   2.643   0.000   3.904
  7        1.260   2.644   0.000   3.904
  8        1.260   2.644   0.000   3.904
------------------------------------------------
tot        7.363  26.483  15.785  49.631
 


 magnetization (x)
 
# of ion     s       p       d       tot
----------------------------------------
  1        0.002  -0.005   1.516   1.514
  2       -0.001   0.004  -1.515  -1.512
  3       -0.000   0.001   0.000   0.001
  4       -0.000   0.001   0.000   0.001
  5        0.022  -0.005   0.000   0.017
  6        0.022  -0.005   0.000   0.017
  7       -0.022   0.003   0.000  -0.019
  8       -0.022   0.003   0.000  -0.019
------------------------------------------------
tot       -0.000  -0.001   0.001   0.000
 
    FORLOC:  cpu time    0.0000: real time    0.0022
    FORHF :  cpu time  613.2623: real time  613.8631
    FORNL :  cpu time    0.0760: real time    0.0745
    FORCOR:  cpu time    0.2760: real time    0.2778
    OFIELD:  cpu time    0.0000: real time    0.0000

 VOLUME and BASIS-vectors are now :
 -----------------------------------------------------------------------------
  energy-cutoff  :      500.00
  volume of cell :       74.57
      direct lattice vectors                 reciprocal lattice vectors
     3.050783656 -0.000000000  0.000000000     0.327784633  0.189246546  0.000000000
    -1.525391828  2.642056148  0.000000000     0.000000000  0.378493092  0.000000000
     0.000000000  0.000000000  9.252026797     0.000000000  0.000000000  0.108084425

  length of vectors
     3.050783656  3.050783656  9.252026797     0.378493092  0.378493092  0.108084425


 FORCES acting on ions:
    Electron-Ion                     Ewald-Force                    Non-Local-Force
 -----------------------------------------------------------------------------------------------
   0.948E-06 0.165E-07 -.357E-06   -.161E-04 -.163E-11 -.145E-11   0.192E-21 0.000E+00 0.000E+00
   0.521E-06 -.623E-07 -.251E-07   -.161E-04 -.163E-11 0.136E-11   0.000E+00 0.000E+00 0.000E+00
   0.149E-05 -.263E-04 -.117E-06   -.158E-07 -.112E-05 -.142E-12   0.542E-19 0.217E-17 0.379E-18
   0.455E-04 0.263E-04 0.109E-06   0.183E-05 0.112E-05 0.213E-13   0.759E-18 -.228E-17 0.596E-18
   0.169E-05 -.337E-04 0.166E+03   -.270E-06 -.958E-05 -.140E+03   -.390E-17 -.867E-18 -.263E+02
   0.593E-04 0.337E-04 -.166E+03   0.155E-04 0.958E-05 0.140E+03   -.130E-17 -.260E-17 0.263E+02
   0.592E-04 0.335E-04 0.166E+03   0.155E-04 0.958E-05 -.140E+03   0.304E-17 -.217E-17 -.263E+02
   0.186E-05 -.335E-04 -.166E+03   -.270E-06 -.958E-05 0.140E+03   -.867E-18 -.130E-17 0.263E+02
 -----------------------------------------------------------------------------------------------
   0.177E-03 0.112E-06 -.291E-05   0.582E-13 -.362E-13 -.199E-12   -.222E-17 -.705E-17 -.355E-14
 
 
 POSITION                                       TOTAL-FORCE (eV/Angst)
 -----------------------------------------------------------------------------------
      0.00000      0.00000      0.00000        -0.000000      0.000000      0.000000
      0.00000      0.00000      4.62601        -0.000000      0.000000      0.000000
     -0.00000      1.76137      6.93902         0.000000      0.000000      0.000000
      1.52539      0.88069      2.31301        -0.000000     -0.000000      0.000000
     -0.00000      1.76137      8.18008        -0.000000     -0.000000     -1.869130
      1.52539      0.88069      1.07194         0.000000      0.000000      1.869130
      1.52539      0.88069      3.55407        -0.000000     -0.000000     -1.869130
     -0.00000      1.76137      5.69796        -0.000000     -0.000000      1.869130
 -----------------------------------------------------------------------------------
    total drift:                                0.000177      0.000000     -0.000003


--------------------------------------------------------------------------------------------------------



  FREE ENERGIE OF THE ION-ELECTRON SYSTEM (eV)
  ---------------------------------------------------
  free  energy   TOTEN  =       -72.11887858 eV

  energy  without entropy=      -72.11887858  energy(sigma->0) =      -72.11887858
 


--------------------------------------------------------------------------------------------------------


    POTLOK:  cpu time    0.2840: real time    0.2837


--------------------------------------------------------------------------------------------------------


 writing wavefunctions
     LOOP+:  cpu time11247.9990: real time11276.2025
    4ORBIT:  cpu time    0.0000: real time    0.0000
 


 total charge     
 
# of ion     s       p       d       tot
----------------------------------------
  1        0.221   6.219   7.891  14.331
  2        0.222   6.218   7.894  14.334
  3        0.939   1.736   0.000   2.676
  4        0.939   1.736   0.000   2.676
  5        1.260   2.643   0.000   3.904
  6        1.260   2.643   0.000   3.904
  7        1.260   2.644   0.000   3.904
  8        1.260   2.644   0.000   3.904
------------------------------------------------
tot        7.363  26.483  15.785  49.631
 


 magnetization (x)
 
# of ion     s       p       d       tot
----------------------------------------
  1        0.002  -0.005   1.516   1.514
  2       -0.001   0.004  -1.515  -1.512
  3       -0.000   0.001   0.000   0.001
  4       -0.000   0.001   0.000   0.001
  5        0.022  -0.005   0.000   0.017
  6        0.022  -0.005   0.000   0.017
  7       -0.022   0.003   0.000  -0.019
  8       -0.022   0.003   0.000  -0.019
------------------------------------------------
tot       -0.000  -0.001   0.001   0.000
 
 BZINTS: Fermi energy:  4.576230; 60.000000 electrons
         Band energy:-871.159861;  BLOECHL correction:  0.000000

 total amount of memory used by VASP on root node    39822. kBytes
========================================================================

   base      :      30000. kBytes
   nonl-proj :       3358. kBytes
   fftplans  :        542. kBytes
   grid      :       1003. kBytes
   one-center:         31. kBytes
   HF        :         64. kBytes
   nonlr-proj:        864. kBytes
   wavefun   :       3960. kBytes
 
  
  
 General timing and accounting informations for this job:
 ========================================================
  
                  Total CPU time used (sec):    11285.197
                            User time (sec):    11282.029
                          System time (sec):        3.168
                         Elapsed time (sec):    11314.840
  
                   Maximum memory used (kb):      214152.
                   Average memory used (kb):           0.
  
                          Minor page faults:        21186
                          Major page faults:            0
                 Voluntary context switches:        64116
