 vasp.5.3.5 31Mar14 (build Jan 22 2015 17:36:29) complex                        
  
 executed on             LinuxIFC date 2016.09.11  10:01:50
 running on   32 total cores
 distrk:  each k-point on   32 cores,    1 groups
 distr:  one band on NCORES_PER_BAND=   8 cores,    4 groups


--------------------------------------------------------------------------------------------------------


 INCAR:
 POTCAR:    PAW_PBE Cd 06Sep2000                  
 POTCAR:    PAW_PBE In_d 06Sep2000                
 POTCAR:    PAW_PBE S 06Sep2000                   
 POTCAR:    PAW_PBE Cd 06Sep2000                  
   VRHFIN =Cd : s2 d10                                                          
   LEXCH  = PE                                                                  
   EATOM  =  1293.1815 eV,   95.0462 Ry                                         
                                                                                
   TITEL  = PAW_PBE Cd 06Sep2000                                                
   LULTRA =        F    use ultrasoft PP ?                                      
   IUNSCR =        1    unscreen: 0-lin 1-nonlin 2-no                           
   RPACOR =    2.000    partial core radius                                     
   POMASS =  112.411; ZVAL   =   12.000    mass and valenz                      
   RCORE  =    2.300    outmost cutoff radius                                   
   RWIGS  =    2.980; RWIGS  =    1.577    wigner-seitz radius (au A)           
   ENMAX  =  274.336; ENMIN  =  205.752 eV                                      
   RCLOC  =    2.054    cutoff for local pot                                    
   LCOR   =        T    correct aug charges                                     
   LPAW   =        T    paw PP                                                  
   EAUG   =  456.106                                                            
   DEXC   =    0.000                                                            
   RMAX   =    2.358    core radius for proj-oper                               
   RAUG   =    1.300    factor for augmentation sphere                          
   RDEP   =    2.450    radius for radial grids                                 
   RDEPT  =    1.955    core radius for aug-charge                              
                                                                                
   Atomic configuration                                                         
   12 entries                                                                   
     n  l   j            E        occ.                                          
     1  0  0.50    -26519.7817   2.0000                                         
     2  0  0.50     -3936.9612   2.0000                                         
     2  1  1.50     -3532.2230   6.0000                                         
     3  0  0.50      -733.7908   2.0000                                         
     3  1  1.50      -601.0792   6.0000                                         
     3  2  2.50      -393.5307  10.0000                                         
     4  0  0.50      -105.8977   2.0000                                         
     4  1  1.50       -66.9488   6.0000                                         
     4  2  2.50       -11.7331  10.0000                                         
     5  0  0.50        -5.6592   2.0000                                         
     5  1  0.50        -1.3606   0.0000                                         
     4  3  2.50        -1.3606   0.0000                                         
   Description                                                                  
     l       E           TYP  RCUT    TYP  RCUT                                 
     2    -11.7331479     23  2.300                                             
     2    -13.0937305     23  2.300                                             
     0     -5.6591502     23  2.300                                             
     0     -1.5561433     23  2.300                                             
     1     -2.7211652     23  2.300                                             
     1      8.3548275     23  2.300                                             
  local pseudopotential read in
  partial core-charges read in
  partial kinetic energy density read in
  atomic valenz-charges read in
  non local Contribution for L=           2  read in
    real space projection operators read in
  non local Contribution for L=           2  read in
    real space projection operators read in
  non local Contribution for L=           0  read in
    real space projection operators read in
  non local Contribution for L=           0  read in
    real space projection operators read in
  non local Contribution for L=           1  read in
    real space projection operators read in
  non local Contribution for L=           1  read in
    real space projection operators read in
    PAW grid and wavefunctions read in
 
   number of l-projection  operators is LMAX  =           6
   number of lm-projection operators is LMMAX =          18
 
 POTCAR:    PAW_PBE In_d 06Sep2000                
   VRHFIN =In: s2p1                                                             
   LEXCH  = PE                                                                  
   EATOM  =  1576.8302 eV,  115.8937 Ry                                         
                                                                                
   TITEL  = PAW_PBE In_d 06Sep2000                                              
   LULTRA =        F    use ultrasoft PP ?                                      
   IUNSCR =        1    unscreen: 0-lin 1-nonlin 2-no                           
   RPACOR =    2.200    partial core radius                                     
   POMASS =  114.820; ZVAL   =   13.000    mass and valenz                      
   RCORE  =    2.500    outmost cutoff radius                                   
   RWIGS  =    3.170; RWIGS  =    1.677    wigner-seitz radius (au A)           
   ENMAX  =  239.211; ENMIN  =  179.409 eV                                      
   ICORE  =        3    local potential                                         
   LCOR   =        T    correct aug charges                                     
   LPAW   =        T    paw PP                                                  
   EAUG   =  449.704                                                            
   DEXC   =    0.000                                                            
   RMAX   =    2.552    core radius for proj-oper                               
   RAUG   =    1.300    factor for augmentation sphere                          
   RDEP   =    2.630    radius for radial grids                                 
   RDEPT  =    2.033    core radius for aug-charge                              
                                                                                
   Atomic configuration                                                         
   12 entries                                                                   
     n  l   j            E        occ.                                          
     1  0  0.50    -27747.9169   2.0000                                         
     2  0  0.50     -4154.4438   2.0000                                         
     2  1  1.50     -3728.4305   6.0000                                         
     3  0  0.50      -788.3680   2.0000                                         
     3  1  1.50      -648.9215   6.0000                                         
     3  2  2.50      -432.5893  10.0000                                         
     4  0  0.50      -119.6363   2.0000                                         
     4  1  1.50       -78.1086   6.0000                                         
     4  2  2.50       -18.6227  10.0000                                         
     5  0  0.50        -8.2107   2.0000                                         
     5  1  0.50        -2.5185   1.0000                                         
     4  3  2.50        -2.7212   0.0000                                         
   Description                                                                  
     l       E           TYP  RCUT    TYP  RCUT                                 
     2    -18.6226981     23  2.500                                             
     2     -1.3605826     23  2.500                                             
     0     -8.2107305     23  2.500                                             
     0     -6.1485975     23  2.500                                             
     1     -2.5184867     23  2.500                                             
     1      3.2427302     23  2.500                                             
     3     -1.3605826      7  2.500                                             
  local pseudopotential read in
  partial core-charges read in
  partial kinetic energy density read in
  atomic valenz-charges read in
  non local Contribution for L=           2  read in
    real space projection operators read in
  non local Contribution for L=           2  read in
    real space projection operators read in
  non local Contribution for L=           0  read in
    real space projection operators read in
  non local Contribution for L=           0  read in
    real space projection operators read in
  non local Contribution for L=           1  read in
    real space projection operators read in
  non local Contribution for L=           1  read in
    real space projection operators read in
    PAW grid and wavefunctions read in
 
   number of l-projection  operators is LMAX  =           6
   number of lm-projection operators is LMMAX =          18
 
 POTCAR:    PAW_PBE S 06Sep2000                   
   VRHFIN =S : s2p4                                                             
   LEXCH  = PE                                                                  
   EATOM  =   276.8230 eV,   20.3459 Ry                                         
                                                                                
   TITEL  = PAW_PBE S 06Sep2000                                                 
   LULTRA =        F    use ultrasoft PP ?                                      
   IUNSCR =        1    unscreen: 0-lin 1-nonlin 2-no                           
   RPACOR =    1.500    partial core radius                                     
   POMASS =   32.066; ZVAL   =    6.000    mass and valenz                      
   RCORE  =    1.900    outmost cutoff radius                                   
   RWIGS  =    2.200; RWIGS  =    1.164    wigner-seitz radius (au A)           
   ENMAX  =  258.689; ENMIN  =  194.016 eV                                      
   ICORE  =        2    local potential                                         
   LCOR   =        T    correct aug charges                                     
   LPAW   =        T    paw PP                                                  
   EAUG   =  335.092                                                            
   DEXC   =    0.000                                                            
   RMAX   =    1.942    core radius for proj-oper                               
   RAUG   =    1.300    factor for augmentation sphere                          
   RDEP   =    1.954    radius for radial grids                                 
   RDEPT  =    1.744    core radius for aug-charge                              
                                                                                
   Atomic configuration                                                         
    6 entries                                                                   
     n  l   j            E        occ.                                          
     1  0  0.50     -2405.8406   2.0000                                         
     2  0  0.50      -211.7007   2.0000                                         
     2  1  1.50      -156.4958   6.0000                                         
     3  0  0.50       -17.2562   2.0000                                         
     3  1  0.50        -7.0085   4.0000                                         
     3  2  1.50        -6.8029   0.0000                                         
   Description                                                                  
     l       E           TYP  RCUT    TYP  RCUT                                 
     0    -17.2561641     23  1.900                                             
     0    -15.8743224     23  1.900                                             
     1     -7.0085400     23  1.900                                             
     1     -2.7779785     23  1.900                                             
     2     -6.8029130     23  1.900                                             
  local pseudopotential read in
  partial core-charges read in
  partial kinetic energy density read in
  atomic valenz-charges read in
  non local Contribution for L=           0  read in
    real space projection operators read in
  non local Contribution for L=           0  read in
    real space projection operators read in
  non local Contribution for L=           1  read in
    real space projection operators read in
  non local Contribution for L=           1  read in
    real space projection operators read in
    PAW grid and wavefunctions read in
 
   number of l-projection  operators is LMAX  =           4
   number of lm-projection operators is LMMAX =           8
 

 ----------------------------------------------------------------------------- 
|                                                                             |
|  ADVICE TO THIS USER RUNNING 'VASP/VAMP'   (HEAR YOUR MASTER'S VOICE ...):  |
|                                                                             |
|      You have a (more or less) 'large supercell' and for larger cells       |
|      it might be more efficient to use real space projection opertators     |
|      So try LREAL= Auto  in the INCAR   file.                               |
|      Mind: At the moment your POTCAR file does not contain real space       |
|       projectors, and has to be modified,  BUT if you                       |
|      want to do an extremely  accurate calculation you might also keep the  |
|      reciprocal projection scheme          (i.e. LREAL=.FALSE.)             |
|                                                                             |
 ----------------------------------------------------------------------------- 

  PAW_PBE Cd 06Sep2000                  :
 energy of atom  1       EATOM=-1293.1815
 kinetic energy error for atom=    0.0041 (will be added to EATOM!!)
  PAW_PBE In_d 06Sep2000                :
 energy of atom  2       EATOM=-1576.8302
 kinetic energy error for atom=    0.0011 (will be added to EATOM!!)
  PAW_PBE S 06Sep2000                   :
 energy of atom  3       EATOM= -276.8230
 kinetic energy error for atom=    0.0009 (will be added to EATOM!!)
 
 
 POSCAR: Cd In2 S4                               
  positions in direct lattice
  velocities in cartesian coordinates
 exchange correlation table for  LEXCH =        8
   RHO(1)=    0.500       N(1)  =     2000
   RHO(2)=  100.500       N(2)  =     4000
 


--------------------------------------------------------------------------------------------------------


 ion  position               nearest neighbor table
   1  0.001  0.999  0.999-  53 2.54  43 2.58  47 2.59  31 2.59
   2  0.001  0.500  0.501-  44 2.54  30 2.58  35 2.59  54 2.59
   3  0.499  0.500  0.999-  32 2.54  46 2.58  57 2.59  36 2.59
   4  0.525  0.028  0.474-  34 2.36  33 2.64  52 2.66  45 2.66  25 2.89
   5  0.749  0.249  0.749-  50 2.55  27 2.58  39 2.59  49 2.59
   6  0.251  0.249  0.251-  42 2.55  48 2.58  55 2.59  26 2.59
   7  0.222  0.726  0.778-  37 2.36  28 2.65  40 2.65  51 2.68  25 2.89
   8  0.749  0.751  0.251-  29 2.55  41 2.58  56 2.59  38 2.59
   9  0.628  0.621  0.625-  46 2.62  41 2.62  49 2.62  54 2.62  51 2.73  45 2.74  22 3.82  18 3.82
                            19 3.90  17 3.90  25 3.92  20 3.94  23 3.95
  10  0.375  0.874  0.124-  36 2.61  38 2.62  55 2.62  47 2.62  40 2.80  52 2.82  14 3.89  23 3.89
                            15 3.90  20 3.90  21 3.96  16 3.96
  11  0.885  0.129  0.371-  48 2.60  34 2.61  44 2.65  53 2.65  39 2.68  56 2.68  24 3.82  15 3.82
                            13 3.84  19 3.96  22 4.00  16 4.00
  12  0.121  0.364  0.879-  43 2.61  37 2.61  50 2.65  42 2.65  57 2.68  35 2.68  14 3.82  24 3.82
                            13 3.84  17 3.96  21 4.00  18 4.00
  13  0.875  0.375  0.125-  29 2.65  42 2.65  50 2.65  53 2.65  44 2.65  32 2.65  21 3.84  18 3.84
                            22 3.84  12 3.84  16 3.84  11 3.84
  14  0.375  0.128  0.879-  43 2.62  27 2.62  57 2.62  55 2.62  40 2.72  33 2.73  16 3.82  12 3.82
                            17 3.89  10 3.89  23 3.95  24 3.95  25 3.97
  15  0.122  0.875  0.371-  30 2.62  48 2.62  47 2.62  56 2.62  52 2.73  28 2.73  21 3.82  11 3.82
                            19 3.89  10 3.90  24 3.95  20 3.95  25 3.95
  16  0.629  0.129  0.115-  27 2.60  34 2.61  32 2.65  53 2.65  55 2.68  38 2.68  14 3.82  23 3.82
                            13 3.84  10 3.96  22 4.00  11 4.00
  17  0.375  0.373  0.625-  26 2.62  49 2.62  35 2.62  57 2.62  33 2.80  51 2.83  14 3.89  24 3.89
                            20 3.90   9 3.90  12 3.96  22 3.96
  18  0.864  0.621  0.879-  46 2.61  37 2.62  29 2.65  50 2.65  31 2.68  54 2.68  23 3.82   9 3.82
                            13 3.84  19 3.96  21 4.00  12 4.00
  19  0.876  0.874  0.625-  54 2.61  56 2.62  39 2.62  31 2.62  28 2.80  45 2.82  24 3.89  15 3.89
                            23 3.90   9 3.90  18 3.96  11 3.96
  20  0.375  0.621  0.372-  30 2.62  41 2.62  26 2.62  36 2.62  51 2.73  52 2.74  22 3.82  21 3.82
                            10 3.90  17 3.90  25 3.92   9 3.94  15 3.95
  21  0.121  0.621  0.136-  30 2.61  37 2.62  29 2.65  42 2.65  47 2.68  36 2.68  15 3.82  20 3.82
                            13 3.84  10 3.96  18 4.00  12 4.00
  22  0.629  0.385  0.371-  41 2.60  34 2.61  44 2.65  32 2.65  26 2.68  49 2.69   9 3.82  20 3.82
                            13 3.84  17 3.96  11 4.00  16 4.00
  23  0.629  0.875  0.878-  46 2.62  27 2.62  31 2.62  38 2.62  45 2.73  40 2.73  18 3.82  16 3.82
                            10 3.89  19 3.90  14 3.95   9 3.95  25 3.95
  24  0.121  0.128  0.625-  43 2.62  48 2.62  35 2.62  39 2.62  28 2.72  33 2.73  11 3.82  12 3.82
                            17 3.89  19 3.89  15 3.95  14 3.95  25 3.97
  25  0.376  0.873  0.624-  51 2.68  52 2.69  45 2.69  40 2.71  28 2.71  33 2.72   7 2.89   4 2.89
                             9 3.92  20 3.92  15 3.95  23 3.95  24 3.97  14 3.97
  26  0.386  0.384  0.388-   6 2.59  17 2.62  20 2.62  22 2.68
  27  0.612  0.112  0.880-   5 2.58  16 2.60  23 2.62  14 2.62
  28  0.130  0.881  0.619-   7 2.65  25 2.71  24 2.72  15 2.73  19 2.80
  29  0.881  0.615  0.119-   8 2.55  13 2.65  18 2.65  21 2.65
  30  0.138  0.638  0.371-   2 2.58  21 2.61  20 2.62  15 2.62
  31  0.866  0.864  0.862-   1 2.59  19 2.62  23 2.62  18 2.68
  32  0.635  0.369  0.131-   3 2.54  16 2.65  22 2.65  13 2.65
  33  0.369  0.119  0.631-   4 2.64  25 2.72  24 2.73  14 2.73  17 2.80
  34  0.650  0.150  0.350-   4 2.36  22 2.61  11 2.61  16 2.61
  35  0.138  0.365  0.636-   2 2.59  17 2.62  24 2.62  12 2.68
  36  0.364  0.638  0.135-   3 2.59  10 2.61  20 2.62  21 2.68
  37  0.100  0.600  0.900-   7 2.36  12 2.61  21 2.62  18 2.62
  38  0.612  0.886  0.115-   8 2.59  10 2.62  23 2.62  16 2.68
  39  0.884  0.111  0.614-   5 2.59  19 2.62  24 2.62  11 2.68
  40  0.381  0.881  0.870-   7 2.65  25 2.71  14 2.72  23 2.73  10 2.80
  41  0.612  0.620  0.388-   8 2.58  22 2.60   9 2.62  20 2.62
  42  0.115  0.381  0.119-   6 2.55  13 2.65  12 2.65  21 2.65
  43  0.138  0.129  0.862-   1 2.58  12 2.61  24 2.62  14 2.62
  44  0.869  0.369  0.365-   2 2.54  11 2.65  22 2.65  13 2.65
  45  0.620  0.869  0.631-   4 2.66  25 2.69  23 2.73   9 2.74  19 2.82
  46  0.629  0.638  0.862-   3 2.58  18 2.61   9 2.62  23 2.62
  47  0.138  0.864  0.134-   1 2.59  10 2.62  15 2.62  21 2.68
  48  0.120  0.112  0.388-   6 2.58  11 2.60  15 2.62  24 2.62
  49  0.612  0.384  0.614-   5 2.59  17 2.62   9 2.62  22 2.69
  50  0.881  0.381  0.885-   5 2.55  13 2.65  12 2.65  18 2.65
  51  0.380  0.630  0.620-   7 2.68  25 2.68  20 2.73   9 2.73  17 2.83
  52  0.369  0.869  0.380-   4 2.66  25 2.69  15 2.73  20 2.74  10 2.82
  53  0.869  0.135  0.131-   1 2.54  11 2.65  16 2.65  13 2.65
  54  0.865  0.638  0.636-   2 2.59  19 2.61   9 2.62  18 2.68
  55  0.386  0.111  0.116-   6 2.59  10 2.62  14 2.62  16 2.68
  56  0.885  0.886  0.388-   8 2.59  19 2.62  15 2.62  11 2.68
  57  0.364  0.365  0.862-   3 2.59  17 2.62  14 2.62  12 2.68
 
  LATTYP: Found a simple cubic cell.
 ALAT       =    11.0223536917
  
  Lattice vectors:
  
 A1 = (  11.0223536917,   0.0000000000,   0.0000000000)
 A2 = (   0.0000000000,  11.0223536917,   0.0000000000)
 A3 = (   0.0000000000,   0.0000000000,  11.0223536917)


Analysis of symmetry for initial positions (statically):
=====================================================================
 Subroutine PRICEL returns:
 Original cell was already a primitive cell.
 

 Routine SETGRP: Setting up the symmetry group for a 
 simple cubic supercell.


 Subroutine GETGRP returns: Found  1 space group operations
 (whereof  1 operations were pure point group operations)
 out of a pool of 48 trial point group operations.


The static configuration has the point symmetry C_1 .


Analysis of symmetry for dynamics (positions and initial velocities):
=====================================================================
 Subroutine PRICEL returns:
 Original cell was already a primitive cell.
 

 Routine SETGRP: Setting up the symmetry group for a 
 simple cubic supercell.


 Subroutine GETGRP returns: Found  1 space group operations
 (whereof  1 operations were pure point group operations)
 out of a pool of 48 trial point group operations.


The dynamic configuration has the point symmetry C_1 .
 
 
 KPOINTS: Automatic mesh                          

Automatic generation of k-mesh.
Space group operators:
 irot       det(A)        alpha          n_x          n_y          n_z        tau_x        tau_y        tau_z
    1     1.000000     0.000001     1.000000     0.000000     0.000000     0.000000     0.000000     0.000000
 
 Subroutine IBZKPT returns following result:
 ===========================================
 
 Found     14 irreducible k-points:
 
 Following reciprocal coordinates:
            Coordinates               Weight
  0.000000  0.000000  0.000000      1.000000
  0.333333  0.000000  0.000000      2.000000
  0.000000  0.333333  0.000000      2.000000
  0.333333  0.333333  0.000000      2.000000
 -0.333333  0.333333  0.000000      2.000000
  0.000000  0.000000  0.333333      2.000000
  0.333333  0.000000  0.333333      2.000000
 -0.333333  0.000000  0.333333      2.000000
  0.000000  0.333333  0.333333      2.000000
  0.333333  0.333333  0.333333      2.000000
 -0.333333  0.333333  0.333333      2.000000
  0.000000 -0.333333  0.333333      2.000000
  0.333333 -0.333333  0.333333      2.000000
 -0.333333 -0.333333  0.333333      2.000000
 
 Following cartesian coordinates:
            Coordinates               Weight
  0.000000  0.000000  0.000000      1.000000
  0.030242  0.000000  0.000000      2.000000
  0.000000  0.030242  0.000000      2.000000
  0.030242  0.030242  0.000000      2.000000
 -0.030242  0.030242  0.000000      2.000000
  0.000000  0.000000  0.030242      2.000000
  0.030242  0.000000  0.030242      2.000000
 -0.030242  0.000000  0.030242      2.000000
  0.000000  0.030242  0.030242      2.000000
  0.030242  0.030242  0.030242      2.000000
 -0.030242  0.030242  0.030242      2.000000
  0.000000 -0.030242  0.030242      2.000000
  0.030242 -0.030242  0.030242      2.000000
 -0.030242 -0.030242  0.030242      2.000000
 
 TETIRR: Found     78 inequivalent tetrahedra from      162


--------------------------------------------------------------------------------------------------------




 Dimension of arrays:
   k-points           NKPTS =     14   k-points in BZ     NKDIM =     14   number of bands    NBANDS=    304
   number of dos      NEDOS =   1601   number of ions     NIONS =     57
   non local maximal  LDIM  =      6   non local SUM 2l+1 LMDIM =     18
   total plane-waves  NPLWV = 729000
   max r-space proj   IRMAX =      1   max aug-charges    IRDMAX=  23711
   dimension x,y,z NGX =    90 NGY =   90 NGZ =   90
   dimension x,y,z NGXF=   180 NGYF=  180 NGZF=  180
   support grid    NGXF=   180 NGYF=  180 NGZF=  180
   ions per type =               8  17  32
 NGX,Y,Z   is equivalent  to a cutoff of  13.57, 13.57, 13.57 a.u.
 NGXF,Y,Z  is equivalent  to a cutoff of  27.15, 27.15, 27.15 a.u.


 I would recommend the setting:
   dimension x,y,z NGX =    88 NGY =   88 NGZ =   88
 SYSTEM =  CdIn2S4                                 
 POSCAR =  Cd In2 S4                               

 Startparameter for this run:
   NWRITE =      2    write-flag & timer
   PREC   = accura    normal or accurate (medium, high low for compatibility)
   ISTART =      0    job   : 0-new  1-cont  2-samecut
   ICHARG =      2    charge: 1-file 2-atom 10-const
   ISPIN  =      1    spin polarized calculation?
   LNONCOLLINEAR =      F non collinear calculations
   LSORBIT =      F    spin-orbit coupling
   INIWAV =      1    electr: 0-lowe 1-rand  2-diag
   LASPH  =      F    aspherical Exc in radial PAW
   METAGGA=      F    non-selfconsistent MetaGGA calc.

 Electronic Relaxation 1
   ENCUT  =  600.0 eV  44.10 Ry    6.64 a.u.  22.01 22.01 22.01*2*pi/ulx,y,z
   ENINI  =  600.0     initial cutoff
   ENAUG  =  456.1 eV  augmentation charge cutoff
   NELM   =     60;   NELMIN=  2; NELMDL= -5     # of ELM steps 
   EDIFF  = 0.1E-03   stopping-criterion for ELM
   LREAL  =      F    real-space projection
   NLSPLINE    = F    spline interpolate recip. space projectors
   LCOMPAT=      F    compatible to vasp.4.4
   GGA_COMPAT  = T    GGA compatible to vasp.4.4-vasp.4.6
   LMAXPAW     = -100 max onsite density
   LMAXMIX     =    2 max onsite mixed and CHGCAR
   VOSKOWN=      0    Vosko Wilk Nusair interpolation
   ROPT   =    0.00000   0.00000   0.00000
 Ionic relaxation
   EDIFFG = 0.1E-02   stopping-criterion for IOM
   NSW    =      0    number of steps for IOM
   NBLOCK =      1;   KBLOCK =      1    inner block; outer block 
   IBRION =     -1    ionic relax: 0-MD 1-quasi-New 2-CG
   NFREE  =      1    steps in history (QN), initial steepest desc. (CG)
   ISIF   =      0    stress and relaxation
   IWAVPR =     10    prediction:  0-non 1-charg 2-wave 3-comb
   ISYM   =      2    0-nonsym 1-usesym 2-fastsym
   LCORR  =      T    Harris-Foulkes like correction to forces

   POTIM  = 0.5000    time-step for ionic-motion
   TEIN   =    0.0    initial temperature
   TEBEG  =    0.0;   TEEND  =   0.0 temperature during run
   SMASS  =  -3.00    Nose mass-parameter (am)
   estimated Nose-frequenzy (Omega)   =  0.10E-29 period in steps =****** mass=  -0.278E-26a.u.
   SCALEE = 1.0000    scale energy and forces
   NPACO  =    256;   APACO  = 16.0  distance and # of slots for P.C.
   PSTRESS=    0.0 pullay stress

  Mass of Ions in am
   POMASS = 112.41114.82 32.07
  Ionic Valenz
   ZVAL   =  12.00 13.00  6.00
  Atomic Wigner-Seitz radii
   RWIGS  =  -1.00 -1.00 -1.00
  virtual crystal weights 
   VCA    =   1.00  1.00  1.00
   NELECT =     506.0000    total number of electrons
   NUPDOWN=      -1.0000    fix difference up-down

 DOS related values:
   EMIN   =  -5.00;   EMAX   = 10.00  energy-range for DOS
   EFERMI =   0.00
   ISMEAR =    -4;   SIGMA  =   0.20  broadening in eV -4-tet -1-fermi 0-gaus

 Electronic relaxation 2 (details)
   IALGO  =     38    algorithm
   LDIAG  =      T    sub-space diagonalisation (order eigenvalues)
   LSUBROT=      F    optimize rotation matrix (better conditioning)
   TURBO    =      0    0=normal 1=particle mesh
   IRESTART =      0    0=no restart 2=restart with 2 vectors
   NREBOOT  =      0    no. of reboots
   NMIN     =      0    reboot dimension
   EREF     =   0.00    reference energy to select bands
   IMIX   =      4    mixing-type and parameters
     AMIX     =   0.40;   BMIX     =  1.00
     AMIX_MAG =   1.60;   BMIX_MAG =  1.00
     AMIN     =   0.10
     WC   =   100.;   INIMIX=   1;  MIXPRE=   1;  MAXMIX= -45

 Intra band minimization:
   WEIMIN = 0.0000     energy-eigenvalue tresh-hold
   EBREAK =  0.82E-07  absolut break condition
   DEPER  =   0.30     relativ break condition  

   TIME   =   0.40     timestep for ELM

  volume/ion in A,a.u.               =      23.49       158.54
  Fermi-wavevector in a.u.,A,eV,Ry     =   1.183543  2.236572 19.058684  1.400774
  Thomas-Fermi vector in A             =   2.319775
 
 Write flags
   LWAVE  =      T    write WAVECAR
   LCHARG =      T    write CHGCAR
   LVTOT  =      F    write LOCPOT, total local potential
   LVHAR  =      F    write LOCPOT, Hartree potential only
   LELF   =      F    write electronic localiz. function (ELF)
   LORBIT =     11    0 simple, 1 ext, 2 COOP (PROOUT)


 Dipole corrections
   LMONO  =      F    monopole corrections only (constant potential shift)
   LDIPOL =      F    correct potential (dipole corrections)
   IDIPOL =      0    1-x, 2-y, 3-z, 4-all directions 
   EPSILON=  1.0000000 bulk dielectric constant

 Exchange correlation treatment:
   GGA     =    --    GGA type
   LEXCH   =     8    internal setting for exchange type
   VOSKOWN=      0    Vosko Wilk Nusair interpolation
   LHFCALC =     F    Hartree Fock is set to
   LHFONE  =     F    Hartree Fock one center treatment
   AEXX    =    0.0000 exact exchange contribution

 Linear response parameters
   LEPSILON=     F    determine dielectric tensor
   LRPA    =     F    only Hartree local field effects (RPA)
   LNABLA  =     F    use nabla operator in PAW spheres
   LVEL    =     F    velocity operator in full k-point grid
   LINTERFAST=   F  fast interpolation
   KINTER  =     0    interpolate to denser k-point grid
   CSHIFT  =0.1000    complex shift for real part using Kramers Kronig
   OMEGAMAX=  -1.0    maximum frequency
   DEG_THRESHOLD= 0.2000000E-02 threshold for treating states as degnerate
   RTIME   =    0.100 relaxation time in fs

 Orbital magnetization related:
   ORBITALMAG=     F  switch on orbital magnetization
   LCHIMAG   =     F  perturbation theory with respect to B field
   DQ        =  0.001000  dq finite difference perturbation B field



--------------------------------------------------------------------------------------------------------


 Static calculation
 charge density and potential will be updated during run
 non-spin polarized calculation
 Variant of blocked Davidson
 Davidson routine will perform the subspace rotation
 perform sub-space diagonalisation
    after iterative eigenvector-optimisation
 modified Broyden-mixing scheme, WC =      100.0
 initial mixing is a Kerker type mixing with AMIX =  0.4000 and BMIX =      1.0000
 Hartree-type preconditioning will be used
 using additional bands           51
 reciprocal scheme for non local part
 use partial core corrections
 calculate Harris-corrections to forces 
   (improved forces if not selfconsistent)
 use gradient corrections 
 use of overlap-Matrix (Vanderbilt PP)
 Fermi weights with tetrahedron method witout Bloechl corrections


--------------------------------------------------------------------------------------------------------


  energy-cutoff  :      600.00
  volume of cell :     1339.13
      direct lattice vectors                 reciprocal lattice vectors
    11.022353692  0.000000000  0.000000000     0.090724724  0.000000000  0.000000000
     0.000000000 11.022353692  0.000000000     0.000000000  0.090724724  0.000000000
     0.000000000  0.000000000 11.022353692     0.000000000  0.000000000  0.090724724

  length of vectors
    11.022353692 11.022353692 11.022353692     0.090724724  0.090724724  0.090724724


 
 k-points in units of 2pi/SCALE and weight: Automatic mesh                          
   0.00000000  0.00000000  0.00000000       0.037
   0.03024157  0.00000000  0.00000000       0.074
   0.00000000  0.03024157  0.00000000       0.074
   0.03024157  0.03024157  0.00000000       0.074
  -0.03024157  0.03024157  0.00000000       0.074
   0.00000000  0.00000000  0.03024157       0.074
   0.03024157  0.00000000  0.03024157       0.074
  -0.03024157  0.00000000  0.03024157       0.074
   0.00000000  0.03024157  0.03024157       0.074
   0.03024157  0.03024157  0.03024157       0.074
  -0.03024157  0.03024157  0.03024157       0.074
   0.00000000 -0.03024157  0.03024157       0.074
   0.03024157 -0.03024157  0.03024157       0.074
  -0.03024157 -0.03024157  0.03024157       0.074
 
 k-points in reciprocal lattice and weights: Automatic mesh                          
   0.00000000  0.00000000  0.00000000       0.037
   0.33333333  0.00000000  0.00000000       0.074
   0.00000000  0.33333333  0.00000000       0.074
   0.33333333  0.33333333  0.00000000       0.074
  -0.33333333  0.33333333  0.00000000       0.074
   0.00000000  0.00000000  0.33333333       0.074
   0.33333333  0.00000000  0.33333333       0.074
  -0.33333333  0.00000000  0.33333333       0.074
   0.00000000  0.33333333  0.33333333       0.074
   0.33333333  0.33333333  0.33333333       0.074
  -0.33333333  0.33333333  0.33333333       0.074
   0.00000000 -0.33333333  0.33333333       0.074
   0.33333333 -0.33333333  0.33333333       0.074
  -0.33333333 -0.33333333  0.33333333       0.074
 
 position of ions in fractional coordinates (direct lattice) 
   0.00056367  0.99859285  0.99943472
   0.00076948  0.50040782  0.50139006
   0.49860293  0.50039956  0.99922767
   0.52549805  0.02813586  0.47448923
   0.74935023  0.24901552  0.74884526
   0.25115950  0.24900846  0.25064974
   0.22241110  0.72591354  0.77758321
   0.74921681  0.75098232  0.25079323
   0.62790080  0.62144078  0.62506233
   0.37543682  0.87441816  0.12419119
   0.88543968  0.12890068  0.37100628
   0.12117046  0.36418015  0.87883196
   0.87508975  0.37504598  0.12491010
   0.37497767  0.12796383  0.87862658
   0.12175951  0.87496129  0.37132525
   0.62899633  0.12890307  0.11455893
   0.37507039  0.37334058  0.62492210
   0.86439751  0.62102335  0.87887456
   0.87580719  0.87441797  0.62456496
   0.37493989  0.62143367  0.37209347
   0.12112399  0.62102337  0.13560166
   0.62903408  0.38533741  0.37097745
   0.62867287  0.87496155  0.87824112
   0.12136531  0.12795802  0.62502580
   0.37606314  0.87277123  0.62393353
   0.38608019  0.38424322  0.38811156
   0.61203006  0.11194672  0.87967035
   0.13011969  0.88100394  0.61898414
   0.88142478  0.61519933  0.11857234
   0.13815292  0.63801303  0.37084379
   0.86566501  0.86374050  0.86168746
   0.63467957  0.36859516  0.13111685
   0.36892381  0.11928211  0.63106367
   0.65011162  0.15005053  0.34988841
   0.13801075  0.36491168  0.63602844
   0.36408220  0.63782231  0.13482037
   0.09990076  0.59950498  0.90010530
   0.61239225  0.88594531  0.11529455
   0.88424500  0.11143100  0.61382065
   0.38101725  0.88100932  0.86986803
   0.61196654  0.62029068  0.38803590
   0.11532287  0.38125759  0.11857134
   0.13800470  0.12903972  0.86199185
   0.86888423  0.36859209  0.36531523
   0.61966220  0.86938769  0.63062429
   0.62915026  0.63801507  0.86185329
   0.13831451  0.86373934  0.13432679
   0.12032663  0.11194769  0.38796661
   0.61189265  0.38427416  0.61398442
   0.88144527  0.38126319  0.88467578
   0.38022890  0.62978658  0.61976397
   0.36938156  0.86938769  0.38033725
   0.86874889  0.13465342  0.13125660
   0.86516963  0.63782162  0.63592343
   0.38617495  0.11144052  0.11574186
   0.88470567  0.88594935  0.38760952
   0.36396750  0.36491743  0.86198556
 
 position of ions in cartesian coordinates  (Angst):
   0.00621298 11.00684358 11.01612295
   0.00848150  5.51567195  5.52649853
   5.49577780  5.51558095 11.01384084
   5.79222541  0.31012339  5.22998814
   8.25960328  2.74473712  8.25403734
   2.76836883  2.74465934  2.76275009
   2.45149381  8.00127583  8.57079722
   8.25813272  8.27759271  2.76433171
   6.92094470  6.84974003  6.88965807
   4.13819737  9.63814621  1.36887923
   9.75962932  1.42078892  4.08936248
   1.33558364  4.01412243  9.68679669
   9.64554869  4.13388942  1.37680333
   4.13313651  1.41046264  9.68453290
   1.34207639  9.64413282  4.09287820
   6.93301999  1.42081522  1.26270901
   4.13415848  4.11509194  6.88811240
   9.52769510  6.84513902  9.68726623
   9.65345664  9.63814409  6.88417589
   4.13272005  6.84966170  4.10134585
   1.33507150  6.84513922  1.49464944
   6.93343610  4.24732523  4.08904469
   6.92945475  9.64413571  9.68028427
   1.33773139  1.41039852  6.88925538
   4.14510098  9.61999320  6.87721601
   4.25551246  4.23526471  4.27790288
   6.74601182  1.23391629  9.69603768
   1.43422530  9.71073707  6.82266216
   9.71537573  6.78094456  1.30694625
   1.52277033  7.03240524  4.08757137
   9.54166590  9.52045333  9.49782392
   6.99566274  4.06278623  1.44521635
   4.06640870  1.31476959  6.95580700
   7.16576021  1.65391006  3.85659384
   1.52120333  4.02218564  7.01053046
   4.01304277  7.03030312  1.48603784
   1.10114153  6.60795588  9.92127902
   6.75000398  9.76520254  1.27081736
   9.74646116  1.22823194  6.76574832
   4.19970688  9.71079629  9.58799306
   6.74531162  6.83706331  4.27706890
   1.27112941  4.20235602  1.30693523
   1.52113661  1.42232146  9.50117909
   9.57714926  4.06275237  4.02663362
   6.83013590  9.58269860  6.95096400
   6.93471667  7.03242773  9.49965174
   1.52455148  9.52044056  1.48059740
   1.32628271  1.23392704  4.27630515
   6.74449724  4.23560573  6.76755343
   9.71560156  4.20241773  9.75120934
   4.19101739  6.94173045  6.83125771
   4.07145422  9.58269865  4.19221174
   9.57565756  1.48419762  1.44675666
   9.53620564  7.03029548  7.00937294
   4.25655687  1.22833682  1.27574776
   9.75153885  9.76524709  4.27236926
   4.01177850  4.02224899  9.50110973
 


--------------------------------------------------------------------------------------------------------


 k-point  1 :   0.0000 0.0000 0.0000  plane waves:   44473
 k-point  2 :   0.3333 0.0000 0.0000  plane waves:   44660
 k-point  3 :   0.0000 0.3333 0.0000  plane waves:   44660
 k-point  4 :   0.3333 0.3333 0.0000  plane waves:   44717
 k-point  5 :  -0.3333 0.3333 0.0000  plane waves:   44717
 k-point  6 :   0.0000 0.0000 0.3333  plane waves:   44660
 k-point  7 :   0.3333 0.0000 0.3333  plane waves:   44717
 k-point  8 :  -0.3333 0.0000 0.3333  plane waves:   44717
 k-point  9 :   0.0000 0.3333 0.3333  plane waves:   44717
 k-point 10 :   0.3333 0.3333 0.3333  plane waves:   44681
 k-point 11 :  -0.3333 0.3333 0.3333  plane waves:   44681
 k-point 12 :   0.0000-0.3333 0.3333  plane waves:   44717
 k-point 13 :   0.3333-0.3333 0.3333  plane waves:   44681
 k-point 14 :  -0.3333-0.3333 0.3333  plane waves:   44681

 maximum and minimum number of plane-waves per node :      5640     5528

 maximum number of plane-waves:     44717
 maximum index in each direction: 
   IXMAX=   22   IYMAX=   22   IZMAX=   22
   IXMIN=  -22   IYMIN=  -22   IZMIN=  -22

 NGX is ok and might be reduce to  90
 NGY is ok and might be reduce to  90
 NGZ is ok and might be reduce to  90

 parallel 3D FFT for wavefunctions:
    minimum data exchange during FFTs selected (reduces bandwidth)
 parallel 3D FFT for charge:
    minimum data exchange during FFTs selected (reduces bandwidth)


 total amount of memory used by VASP on root node   192496. kBytes
========================================================================

   base      :      30000. kBytes
   nonl-proj :      39115. kBytes
   fftplans  :       9362. kBytes
   grid      :      16450. kBytes
   one-center:        124. kBytes
   wavefun   :      97445. kBytes
 
     INWAV:  cpu time    0.00: real time    0.00
 Broyden mixing: mesh for mixing (old mesh)
   NGX = 45   NGY = 45   NGZ = 45
  (NGX  =180   NGY  =180   NGZ  =180)
  gives a total of  91125 points

 initial charge density was supplied:
 charge density of overlapping atoms calculated
 number of electron     509.0000000 magnetization 
 keeping initial charge density in first step


--------------------------------------------------------------------------------------------------------


 Maximum index for augmentation-charges          971 (set IRDMAX)


--------------------------------------------------------------------------------------------------------


 First call to EWALD:  gamma=   0.161
 Maximum number of real-space cells 3x 3x 3
 Maximum number of reciprocal cells 3x 3x 3

 FEWALD executed in parallel
    FEWALD:  cpu time    0.05: real time    0.05


----------------------------------------- Iteration    1(   1)  ---------------------------------------


    POTLOK:  cpu time    0.30: real time    0.31
    SETDIJ:  cpu time    0.02: real time    0.02
     EDDAV:  cpu time   81.73: real time   81.82
 BZINTS: Fermi energy: 33.942878;506.000000 electrons
         Band energy:4790.177781;  BLOECHL correction:  0.000000
       DOS:  cpu time    3.44: real time    3.45
    --------------------------------------------
      LOOP:  cpu time   85.49: real time   85.64

 eigenvalue-minimisations  :  8520
 total energy-change (2. order) : 0.6707804E+04  (-0.2283029E+05)
 number of electron     509.0000000 magnetization 
 augmentation part      509.0000000 magnetization 

 Free energy of the ion-electron system (eV)
  ---------------------------------------------------
  alpha Z        PSCENC =      1326.31949012
  Ewald energy   TEWEN  =    -33204.21570309
  -Hartree energ DENC   =    -13891.92283359
  -exchange      EXHF   =         0.00000000
  -V(xc)+E(xc)   XCENC  =      1147.06159336
  PAW double counting   =     40008.96445583   -39478.40375335
  entropy T*S    EENTRO =         0.00000000
  eigenvalues    EBANDS =      4790.17778065
  atomic energy  EATOM  =     46009.82289571
  ---------------------------------------------------
  free energy    TOTEN  =      6707.80392564 eV

  energy without entropy =     6707.80392564  energy(sigma->0) =     6707.80392564


--------------------------------------------------------------------------------------------------------




----------------------------------------- Iteration    1(   2)  ---------------------------------------


     EDDAV:  cpu time   81.20: real time   81.29
 BZINTS: Fermi energy: 12.997834;506.000000 electrons
         Band energy:-741.700804;  BLOECHL correction:  0.000000
       DOS:  cpu time    0.49: real time    0.49
    --------------------------------------------
      LOOP:  cpu time   81.73: real time   81.84

 eigenvalue-minimisations  :  8512
 total energy-change (2. order) :-0.5531879E+04  (-0.5390952E+04)
 number of electron     509.0000000 magnetization 
 augmentation part      509.0000000 magnetization 

 Free energy of the ion-electron system (eV)
  ---------------------------------------------------
  alpha Z        PSCENC =      1326.31949012
  Ewald energy   TEWEN  =    -33204.21570309
  -Hartree energ DENC   =    -13891.92283359
  -exchange      EXHF   =         0.00000000
  -V(xc)+E(xc)   XCENC  =      1147.06159336
  PAW double counting   =     40008.96445583   -39478.40375335
  entropy T*S    EENTRO =         0.00000000
  eigenvalues    EBANDS =      -741.70080434
  atomic energy  EATOM  =     46009.82289571
  ---------------------------------------------------
  free energy    TOTEN  =      1175.92534065 eV

  energy without entropy =     1175.92534065  energy(sigma->0) =     1175.92534065


--------------------------------------------------------------------------------------------------------




----------------------------------------- Iteration    1(   3)  ---------------------------------------


     EDDAV:  cpu time   86.86: real time   86.96
 BZINTS: Fermi energy:  4.817969;506.000000 electrons
         Band energy:***********;  BLOECHL correction:  0.000000
       DOS:  cpu time    0.01: real time    0.01
    --------------------------------------------
      LOOP:  cpu time   86.88: real time   87.02

 eigenvalue-minimisations  :  9320
 total energy-change (2. order) :-0.1246522E+04  (-0.1163459E+04)
 number of electron     509.0000000 magnetization 
 augmentation part      509.0000000 magnetization 

 Free energy of the ion-electron system (eV)
  ---------------------------------------------------
  alpha Z        PSCENC =      1326.31949012
  Ewald energy   TEWEN  =    -33204.21570309
  -Hartree energ DENC   =    -13891.92283359
  -exchange      EXHF   =         0.00000000
  -V(xc)+E(xc)   XCENC  =      1147.06159336
  PAW double counting   =     40008.96445583   -39478.40375335
  entropy T*S    EENTRO =         0.00000000
  eigenvalues    EBANDS =     -1988.22284720
  atomic energy  EATOM  =     46009.82289571
  ---------------------------------------------------
  free energy    TOTEN  =       -70.59670221 eV

  energy without entropy =      -70.59670221  energy(sigma->0) =      -70.59670221


--------------------------------------------------------------------------------------------------------




----------------------------------------- Iteration    1(   4)  ---------------------------------------


     EDDAV:  cpu time   99.62: real time   99.73
 BZINTS: Fermi energy:  2.688672;506.000000 electrons
         Band energy:***********;  BLOECHL correction:  0.000000
       DOS:  cpu time    0.02: real time    0.02
    --------------------------------------------
      LOOP:  cpu time   99.64: real time   99.77

 eigenvalue-minimisations  : 11120
 total energy-change (2. order) :-0.1644249E+03  (-0.1608811E+03)
 number of electron     509.0000000 magnetization 
 augmentation part      509.0000000 magnetization 

 Free energy of the ion-electron system (eV)
  ---------------------------------------------------
  alpha Z        PSCENC =      1326.31949012
  Ewald energy   TEWEN  =    -33204.21570309
  -Hartree energ DENC   =    -13891.92283359
  -exchange      EXHF   =         0.00000000
  -V(xc)+E(xc)   XCENC  =      1147.06159336
  PAW double counting   =     40008.96445583   -39478.40375335
  entropy T*S    EENTRO =         0.00000000
  eigenvalues    EBANDS =     -2152.64779505
  atomic energy  EATOM  =     46009.82289571
  ---------------------------------------------------
  free energy    TOTEN  =      -235.02165006 eV

  energy without entropy =     -235.02165006  energy(sigma->0) =     -235.02165006


--------------------------------------------------------------------------------------------------------




----------------------------------------- Iteration    1(   5)  ---------------------------------------


     EDDAV:  cpu time   93.01: real time   93.10
 BZINTS: Fermi energy:  2.617187;506.000000 electrons
         Band energy:***********;  BLOECHL correction:  0.000000
       DOS:  cpu time    0.01: real time    0.01
    CHARGE:  cpu time    3.08: real time    3.08
    MIXING:  cpu time    0.02: real time    0.01
    --------------------------------------------
      LOOP:  cpu time   96.11: real time   96.24

 eigenvalue-minimisations  : 10184
 total energy-change (2. order) :-0.6120112E+01  (-0.6049450E+01)
 number of electron     506.0000016 magnetization 
 augmentation part      139.3120378 magnetization 

 Broyden mixing:
  rms(total) = 0.40562E+01    rms(broyden)= 0.40554E+01
  rms(prec ) = 0.44046E+01
  weight for this iteration     100.00

 Free energy of the ion-electron system (eV)
  ---------------------------------------------------
  alpha Z        PSCENC =      1326.31949012
  Ewald energy   TEWEN  =    -33204.21570309
  -Hartree energ DENC   =    -13891.92283359
  -exchange      EXHF   =         0.00000000
  -V(xc)+E(xc)   XCENC  =      1147.06159336
  PAW double counting   =     40008.96445583   -39478.40375335
  entropy T*S    EENTRO =         0.00000000
  eigenvalues    EBANDS =     -2158.76790692
  atomic energy  EATOM  =     46009.82289571
  ---------------------------------------------------
  free energy    TOTEN  =      -241.14176194 eV

  energy without entropy =     -241.14176194  energy(sigma->0) =     -241.14176194


--------------------------------------------------------------------------------------------------------




----------------------------------------- Iteration    1(   6)  ---------------------------------------


    POTLOK:  cpu time    0.24: real time    0.24
    SETDIJ:  cpu time    0.02: real time    0.02
     EDDAV:  cpu time  100.71: real time  100.81
 BZINTS: Fermi energy:  3.245312;506.000000 electrons
         Band energy:***********;  BLOECHL correction:  0.000000
       DOS:  cpu time    0.02: real time    0.01
    CHARGE:  cpu time    3.04: real time    3.04
    MIXING:  cpu time    0.01: real time    0.01
    --------------------------------------------
      LOOP:  cpu time  104.02: real time  104.17

 eigenvalue-minimisations  : 11264
 total energy-change (2. order) : 0.1335268E+02  (-0.2368924E+01)
 number of electron     506.0000016 magnetization 
 augmentation part      140.5447326 magnetization 

 Broyden mixing:
  rms(total) = 0.26078E+01    rms(broyden)= 0.26078E+01
  rms(prec ) = 0.26912E+01
  weight for this iteration     100.00

 eigenvalues of (default mixing * dielectric matrix)
  average eigenvalue GAMMA=   1.7555
  1.7555

 Free energy of the ion-electron system (eV)
  ---------------------------------------------------
  alpha Z        PSCENC =      1326.31949012
  Ewald energy   TEWEN  =    -33204.21570309
  -Hartree energ DENC   =    -13809.60377638
  -exchange      EXHF   =         0.00000000
  -V(xc)+E(xc)   XCENC  =      1142.28739543
  PAW double counting   =     48652.06958616   -48088.00112254
  entropy T*S    EENTRO =         0.00000000
  eigenvalues    EBANDS =     -2256.46784487
  atomic energy  EATOM  =     46009.82289571
  ---------------------------------------------------
  free energy    TOTEN  =      -227.78907946 eV

  energy without entropy =     -227.78907946  energy(sigma->0) =     -227.78907946


--------------------------------------------------------------------------------------------------------




----------------------------------------- Iteration    1(   7)  ---------------------------------------


    POTLOK:  cpu time    0.24: real time    0.24
    SETDIJ:  cpu time    0.02: real time    0.02
     EDDAV:  cpu time  102.45: real time  102.56
 BZINTS: Fermi energy:  3.617969;506.000000 electrons
         Band energy:***********;  BLOECHL correction:  0.000000
       DOS:  cpu time    0.02: real time    0.02
    CHARGE:  cpu time    3.02: real time    3.03
    MIXING:  cpu time    0.02: real time    0.02
    --------------------------------------------
      LOOP:  cpu time  105.77: real time  105.96

 eigenvalue-minimisations  : 11512
 total energy-change (2. order) : 0.9588562E-01  (-0.2189420E+01)
 number of electron     506.0000016 magnetization 
 augmentation part      141.5178780 magnetization 

 Broyden mixing:
  rms(total) = 0.93950E+00    rms(broyden)= 0.93950E+00
  rms(prec ) = 0.98416E+00
  weight for this iteration     100.00

 eigenvalues of (default mixing * dielectric matrix)
  average eigenvalue GAMMA=   1.6391
  1.3143  1.9640

 Free energy of the ion-electron system (eV)
  ---------------------------------------------------
  alpha Z        PSCENC =      1326.31949012
  Ewald energy   TEWEN  =    -33204.21570309
  -Hartree energ DENC   =    -13805.31303243
  -exchange      EXHF   =         0.00000000
  -V(xc)+E(xc)   XCENC  =      1147.11305368
  PAW double counting   =     58266.92160661   -57691.73858281
  entropy T*S    EENTRO =         0.00000000
  eigenvalues    EBANDS =     -2276.60292164
  atomic energy  EATOM  =     46009.82289571
  ---------------------------------------------------
  free energy    TOTEN  =      -227.69319384 eV

  energy without entropy =     -227.69319384  energy(sigma->0) =     -227.69319384


--------------------------------------------------------------------------------------------------------




----------------------------------------- Iteration    1(   8)  ---------------------------------------


    POTLOK:  cpu time    0.24: real time    0.24
    SETDIJ:  cpu time    0.02: real time    0.02
     EDDAV:  cpu time  101.63: real time  101.75
 BZINTS: Fermi energy:  3.470312;506.000000 electrons
         Band energy:***********;  BLOECHL correction:  0.000000
       DOS:  cpu time    0.01: real time    0.01
    CHARGE:  cpu time    3.02: real time    3.03
    MIXING:  cpu time    0.01: real time    0.01
    --------------------------------------------
      LOOP:  cpu time  104.93: real time  105.08

 eigenvalue-minimisations  : 11400
 total energy-change (2. order) : 0.1486684E+00  (-0.3781254E+00)
 number of electron     506.0000016 magnetization 
 augmentation part      140.9860047 magnetization 

 Broyden mixing:
  rms(total) = 0.42775E+00    rms(broyden)= 0.42775E+00
  rms(prec ) = 0.44072E+00
  weight for this iteration     100.00

 eigenvalues of (default mixing * dielectric matrix)
  average eigenvalue GAMMA=   1.3781
  2.1355  1.0768  0.9220

 Free energy of the ion-electron system (eV)
  ---------------------------------------------------
  alpha Z        PSCENC =      1326.31949012
  Ewald energy   TEWEN  =    -33204.21570309
  -Hartree energ DENC   =    -13832.25551333
  -exchange      EXHF   =         0.00000000
  -V(xc)+E(xc)   XCENC  =      1147.41954634
  PAW double counting   =     61314.72131648   -60746.93740334
  entropy T*S    EENTRO =         0.00000000
  eigenvalues    EBANDS =     -2242.41915437
  atomic energy  EATOM  =     46009.82289571
  ---------------------------------------------------
  free energy    TOTEN  =      -227.54452548 eV

  energy without entropy =     -227.54452548  energy(sigma->0) =     -227.54452548


--------------------------------------------------------------------------------------------------------




----------------------------------------- Iteration    1(   9)  ---------------------------------------


    POTLOK:  cpu time    0.24: real time    0.24
    SETDIJ:  cpu time    0.02: real time    0.02
     EDDAV:  cpu time  103.23: real time  103.33
 BZINTS: Fermi energy:  3.498437;506.000000 electrons
         Band energy:***********;  BLOECHL correction:  0.000000
       DOS:  cpu time    0.01: real time    0.01
    CHARGE:  cpu time    3.02: real time    3.03
    MIXING:  cpu time    0.01: real time    0.01
    --------------------------------------------
      LOOP:  cpu time  106.53: real time  106.72

 eigenvalue-minimisations  : 11624
 total energy-change (2. order) : 0.1346710E-01  (-0.2378418E-01)
 number of electron     506.0000016 magnetization 
 augmentation part      141.0549552 magnetization 

 Broyden mixing:
  rms(total) = 0.16352E+00    rms(broyden)= 0.16352E+00
  rms(prec ) = 0.16965E+00
  weight for this iteration     100.00

 eigenvalues of (default mixing * dielectric matrix)
  average eigenvalue GAMMA=   1.4174
  1.8226  1.8226  1.0121  1.0121

 Free energy of the ion-electron system (eV)
  ---------------------------------------------------
  alpha Z        PSCENC =      1326.31949012
  Ewald energy   TEWEN  =    -33204.21570309
  -Hartree energ DENC   =    -13823.29313231
  -exchange      EXHF   =         0.00000000
  -V(xc)+E(xc)   XCENC  =      1147.67571719
  PAW double counting   =     62277.53755143   -61707.17811313
  entropy T*S    EENTRO =         0.00000000
  eigenvalues    EBANDS =     -2254.19976430
  atomic energy  EATOM  =     46009.82289571
  ---------------------------------------------------
  free energy    TOTEN  =      -227.53105838 eV

  energy without entropy =     -227.53105838  energy(sigma->0) =     -227.53105838


--------------------------------------------------------------------------------------------------------




----------------------------------------- Iteration    1(  10)  ---------------------------------------


    POTLOK:  cpu time    0.24: real time    0.24
    SETDIJ:  cpu time    0.02: real time    0.02
     EDDAV:  cpu time  102.09: real time  102.20
 BZINTS: Fermi energy:  3.507812;506.000000 electrons
         Band energy:***********;  BLOECHL correction:  0.000000
       DOS:  cpu time    0.02: real time    0.01
    CHARGE:  cpu time    3.02: real time    3.03
    MIXING:  cpu time    0.00: real time    0.01
    --------------------------------------------
      LOOP:  cpu time  105.39: real time  105.52

 eigenvalue-minimisations  : 11464
 total energy-change (2. order) :-0.3338647E-02  (-0.3669018E-02)
 number of electron     506.0000016 magnetization 
 augmentation part      141.0923415 magnetization 

 Broyden mixing:
  rms(total) = 0.11007E+00    rms(broyden)= 0.11007E+00
  rms(prec ) = 0.11268E+00
  weight for this iteration     100.00

 eigenvalues of (default mixing * dielectric matrix)
  average eigenvalue GAMMA=   1.6094
  2.4960  2.4960  1.1312  1.1312  0.7923

 Free energy of the ion-electron system (eV)
  ---------------------------------------------------
  alpha Z        PSCENC =      1326.31949012
  Ewald energy   TEWEN  =    -33204.21570309
  -Hartree energ DENC   =    -13820.54800329
  -exchange      EXHF   =         0.00000000
  -V(xc)+E(xc)   XCENC  =      1147.73829814
  PAW double counting   =     62187.60919362   -61616.38019030
  entropy T*S    EENTRO =         0.00000000
  eigenvalues    EBANDS =     -2257.88037795
  atomic energy  EATOM  =     46009.82289571
  ---------------------------------------------------
  free energy    TOTEN  =      -227.53439703 eV

  energy without entropy =     -227.53439703  energy(sigma->0) =     -227.53439703


--------------------------------------------------------------------------------------------------------




----------------------------------------- Iteration    1(  11)  ---------------------------------------


    POTLOK:  cpu time    0.24: real time    0.24
    SETDIJ:  cpu time    0.02: real time    0.02
     EDDAV:  cpu time   97.73: real time   97.84
 BZINTS: Fermi energy:  3.505469;506.000000 electrons
         Band energy:***********;  BLOECHL correction:  0.000000
       DOS:  cpu time    0.02: real time    0.02
    CHARGE:  cpu time    3.02: real time    3.02
    MIXING:  cpu time    0.01: real time    0.01
    --------------------------------------------
      LOOP:  cpu time  101.03: real time  101.21

 eigenvalue-minimisations  : 10872
 total energy-change (2. order) :-0.4659008E-02  (-0.1150546E-02)
 number of electron     506.0000016 magnetization 
 augmentation part      141.0660263 magnetization 

 Broyden mixing:
  rms(total) = 0.25844E-01    rms(broyden)= 0.25844E-01
  rms(prec ) = 0.30878E-01
  weight for this iteration     100.00

 eigenvalues of (default mixing * dielectric matrix)
  average eigenvalue GAMMA=   1.4843
  2.4011  2.4011  1.0970  1.0970  0.9862  0.9232

 Free energy of the ion-electron system (eV)
  ---------------------------------------------------
  alpha Z        PSCENC =      1326.31949012
  Ewald energy   TEWEN  =    -33204.21570309
  -Hartree energ DENC   =    -13822.65573482
  -exchange      EXHF   =         0.00000000
  -V(xc)+E(xc)   XCENC  =      1147.89861467
  PAW double counting   =     62103.71591127   -61532.38850038
  entropy T*S    EENTRO =         0.00000000
  eigenvalues    EBANDS =     -2256.03602952
  atomic energy  EATOM  =     46009.82289571
  ---------------------------------------------------
  free energy    TOTEN  =      -227.53905604 eV

  energy without entropy =     -227.53905604  energy(sigma->0) =     -227.53905604


--------------------------------------------------------------------------------------------------------




----------------------------------------- Iteration    1(  12)  ---------------------------------------


    POTLOK:  cpu time    0.24: real time    0.24
    SETDIJ:  cpu time    0.02: real time    0.02
     EDDAV:  cpu time   99.72: real time   99.83
 BZINTS: Fermi energy:  3.514844;506.000000 electrons
         Band energy:***********;  BLOECHL correction:  0.000000
       DOS:  cpu time    0.01: real time    0.02
    CHARGE:  cpu time    3.02: real time    3.02
    MIXING:  cpu time    0.01: real time    0.01
    --------------------------------------------
      LOOP:  cpu time  103.02: real time  103.14

 eigenvalue-minimisations  : 11152
 total energy-change (2. order) : 0.1330268E-02  (-0.4613708E-03)
 number of electron     506.0000016 magnetization 
 augmentation part      141.0836536 magnetization 

 Broyden mixing:
  rms(total) = 0.13941E-01    rms(broyden)= 0.13941E-01
  rms(prec ) = 0.14501E-01
  weight for this iteration     100.00

 eigenvalues of (default mixing * dielectric matrix)
  average eigenvalue GAMMA=   1.4924
  2.3695  2.3695  1.4083  1.4083  1.0493  1.0493  0.7926

 Free energy of the ion-electron system (eV)
  ---------------------------------------------------
  alpha Z        PSCENC =      1326.31949012
  Ewald energy   TEWEN  =    -33204.21570309
  -Hartree energ DENC   =    -13822.17777218
  -exchange      EXHF   =         0.00000000
  -V(xc)+E(xc)   XCENC  =      1147.95591556
  PAW double counting   =     62112.22356825   -61540.53455267
  entropy T*S    EENTRO =         0.00000000
  eigenvalues    EBANDS =     -2256.93156747
  atomic energy  EATOM  =     46009.82289571
  ---------------------------------------------------
  free energy    TOTEN  =      -227.53772577 eV

  energy without entropy =     -227.53772577  energy(sigma->0) =     -227.53772577


--------------------------------------------------------------------------------------------------------




----------------------------------------- Iteration    1(  13)  ---------------------------------------


    POTLOK:  cpu time    0.24: real time    0.24
    SETDIJ:  cpu time    0.02: real time    0.02
     EDDAV:  cpu time   81.07: real time   81.16
 BZINTS: Fermi energy:  3.514844;506.000000 electrons
         Band energy:***********;  BLOECHL correction:  0.000000
       DOS:  cpu time    0.02: real time    0.02
    CHARGE:  cpu time    3.02: real time    3.02
    MIXING:  cpu time    0.00: real time    0.01
    --------------------------------------------
      LOOP:  cpu time   84.37: real time   84.49

 eigenvalue-minimisations  :  8496
 total energy-change (2. order) :-0.1664532E-03  (-0.9348982E-04)
 number of electron     506.0000016 magnetization 
 augmentation part      141.0878605 magnetization 

 Broyden mixing:
  rms(total) = 0.77456E-02    rms(broyden)= 0.77456E-02
  rms(prec ) = 0.79566E-02
  weight for this iteration     100.00

 eigenvalues of (default mixing * dielectric matrix)
  average eigenvalue GAMMA=   1.5299
  2.5661  2.5661  1.5385  1.5385  0.8409  1.1054  1.0420  1.0420

 Free energy of the ion-electron system (eV)
  ---------------------------------------------------
  alpha Z        PSCENC =      1326.31949012
  Ewald energy   TEWEN  =    -33204.21570309
  -Hartree energ DENC   =    -13822.40400239
  -exchange      EXHF   =         0.00000000
  -V(xc)+E(xc)   XCENC  =      1147.98076841
  PAW double counting   =     62121.54823075   -61549.83306717
  entropy T*S    EENTRO =         0.00000000
  eigenvalues    EBANDS =     -2256.75650456
  atomic energy  EATOM  =     46009.82289571
  ---------------------------------------------------
  free energy    TOTEN  =      -227.53789222 eV

  energy without entropy =     -227.53789222  energy(sigma->0) =     -227.53789222


--------------------------------------------------------------------------------------------------------




----------------------------------------- Iteration    1(  14)  ---------------------------------------


    POTLOK:  cpu time    0.24: real time    0.24
    SETDIJ:  cpu time    0.02: real time    0.02
     EDDAV:  cpu time   59.85: real time   59.92
 BZINTS: Fermi energy:  3.514844;506.000000 electrons
         Band energy:***********;  BLOECHL correction:  0.000000
       DOS:  cpu time    0.02: real time    0.02
    --------------------------------------------
      LOOP:  cpu time   60.12: real time   60.25

 eigenvalue-minimisations  :  5464
 total energy-change (2. order) :-0.4327278E-04  (-0.7890794E-05)
 number of electron     506.0000016 magnetization 
 augmentation part      141.0878605 magnetization 

 Free energy of the ion-electron system (eV)
  ---------------------------------------------------
  alpha Z        PSCENC =      1326.31949012
  Ewald energy   TEWEN  =    -33204.21570309
  -Hartree energ DENC   =    -13822.57637999
  -exchange      EXHF   =         0.00000000
  -V(xc)+E(xc)   XCENC  =      1147.99163803
  PAW double counting   =     62105.65483916   -61533.93016534
  entropy T*S    EENTRO =         0.00000000
  eigenvalues    EBANDS =     -2256.60455008
  atomic energy  EATOM  =     46009.82289571
  ---------------------------------------------------
  free energy    TOTEN  =      -227.53793549 eV

  energy without entropy =     -227.53793549  energy(sigma->0) =     -227.53793549


--------------------------------------------------------------------------------------------------------




 average (electrostatic) potential at core
  the test charge radii are     1.0698  1.0774  0.9698
  (the norm of the test charge is              1.0000)
       1 -36.9895       2 -36.9894       3 -36.9892       4 -37.4142       5 -36.9878
       6 -36.9879       7 -37.4188       8 -36.9871       9 -96.7139      10 -96.8757
      11 -96.5805      12 -96.5805      13 -96.4748      14 -96.7104      15 -96.7132
      16 -96.5809      17 -96.8757      18 -96.5813      19 -96.8756      20 -96.7143
      21 -96.5818      22 -96.5822      23 -96.7131      24 -96.7104      25 -97.3950
      26 -86.8238      27 -86.8603      28 -86.9448      29 -86.6191      30 -86.8634
      31 -86.8243      32 -86.6188      33 -86.9392      34 -86.9231      35 -86.8237
      36 -86.8261      37 -86.9155      38 -86.8222      39 -86.8217      40 -86.9447
      41 -86.8661      42 -86.6183      43 -86.8577      44 -86.6191      45 -86.9312
      46 -86.8629      47 -86.8244      48 -86.8604      49 -86.8233      50 -86.6184
      51 -86.9305      52 -86.9314      53 -86.6196      54 -86.8261      55 -86.8216
      56 -86.8223      57 -86.8237
 
 
 
 E-fermi :   3.5148     XC(G=0):  -9.4315     alpha+bet :-10.0450


 k-point     1 :       0.0000    0.0000    0.0000
  band No.  band energies     occupation 
      1     -10.8137      2.00000
      2     -10.8136      2.00000
      3     -10.7021      2.00000
      4     -10.5474      2.00000
      5     -10.5468      2.00000
      6     -10.4272      2.00000
      7     -10.4020      2.00000
      8     -10.4016      2.00000
      9     -10.3798      2.00000
     10     -10.3463      2.00000
     11     -10.3455      2.00000
     12     -10.3182      2.00000
     13     -10.3167      2.00000
     14     -10.3161      2.00000
     15     -10.2640      2.00000
     16     -10.2154      2.00000
     17     -10.1845      2.00000
     18     -10.1839      2.00000
     19     -10.1654      2.00000
     20     -10.1653      2.00000
     21     -10.1325      2.00000
     22     -10.1016      2.00000
     23     -10.1012      2.00000
     24     -10.0940      2.00000
     25     -10.0826      2.00000
     26     -10.0825      2.00000
     27     -10.0691      2.00000
     28     -10.0690      2.00000
     29     -10.0643      2.00000
     30     -10.0632      2.00000
     31     -10.0630      2.00000
     32     -10.0539      2.00000
     33     -10.0294      2.00000
     34     -10.0292      2.00000
     35     -10.0234      2.00000
     36     -10.0088      2.00000
     37     -10.0030      2.00000
     38     -10.0029      2.00000
     39      -9.9415      2.00000
     40      -9.9413      2.00000
     41      -9.9397      2.00000
     42      -9.9297      2.00000
     43      -9.9295      2.00000
     44      -9.9256      2.00000
     45      -9.9112      2.00000
     46      -9.9078      2.00000
     47      -9.9061      2.00000
     48      -9.9060      2.00000
     49      -9.9033      2.00000
     50      -9.9028      2.00000
     51      -9.9027      2.00000
     52      -9.9023      2.00000
     53      -9.8959      2.00000
     54      -9.8921      2.00000
     55      -9.8920      2.00000
     56      -9.8864      2.00000
     57      -9.8765      2.00000
     58      -9.8762      2.00000
     59      -9.8744      2.00000
     60      -9.8740      2.00000
     61      -9.8623      2.00000
     62      -9.8509      2.00000
     63      -9.8432      2.00000
     64      -9.8329      2.00000
     65      -9.8195      2.00000
     66      -9.8194      2.00000
     67      -9.7762      2.00000
     68      -9.7760      2.00000
     69      -9.7757      2.00000
     70      -9.7755      2.00000
     71      -9.7694      2.00000
     72      -9.7691      2.00000
     73      -9.7622      2.00000
     74      -9.7620      2.00000
     75      -9.7564      2.00000
     76      -9.7563      2.00000
     77      -9.7524      2.00000
     78      -9.7522      2.00000
     79      -9.7506      2.00000
     80      -9.7505      2.00000
     81      -9.7413      2.00000
     82      -9.7354      2.00000
     83      -9.6690      2.00000
     84      -9.6395      2.00000
     85      -9.6394      2.00000
     86      -9.1793      2.00000
     87      -8.7012      2.00000
     88      -8.6633      2.00000
     89      -8.6621      2.00000
     90      -8.6580      2.00000
     91      -8.5527      2.00000
     92      -8.5523      2.00000
     93      -8.2458      2.00000
     94      -8.1141      2.00000
     95      -8.0485      2.00000
     96      -8.0468      2.00000
     97      -8.0221      2.00000
     98      -7.9146      2.00000
     99      -7.8424      2.00000
    100      -7.8372      2.00000
    101      -7.8368      2.00000
    102      -7.7992      2.00000
    103      -7.7989      2.00000
    104      -7.7562      2.00000
    105      -7.5929      2.00000
    106      -7.5919      2.00000
    107      -7.5750      2.00000
    108      -7.5742      2.00000
    109      -7.3015      2.00000
    110      -7.2665      2.00000
    111      -7.2640      2.00000
    112      -7.2388      2.00000
    113      -7.2383      2.00000
    114      -7.1858      2.00000
    115      -7.1841      2.00000
    116      -7.0813      2.00000
    117      -7.0809      2.00000
    118      -4.3427      2.00000
    119      -4.3221      2.00000
    120      -4.1676      2.00000
    121      -4.1667      2.00000
    122      -4.1412      2.00000
    123      -4.1407      2.00000
    124      -4.0108      2.00000
    125      -4.0104      2.00000
    126      -3.9874      2.00000
    127      -3.9874      2.00000
    128      -3.7989      2.00000
    129      -3.7801      2.00000
    130      -3.7800      2.00000
    131      -3.7729      2.00000
    132      -3.7728      2.00000
    133      -3.7363      2.00000
    134      -3.7233      2.00000
    135      -3.7033      2.00000
    136      -3.7032      2.00000
    137      -3.6745      2.00000
    138      -3.6744      2.00000
    139      -3.6628      2.00000
    140      -3.6471      2.00000
    141      -3.6471      2.00000
    142      -3.6413      2.00000
    143      -3.6300      2.00000
    144      -3.6293      2.00000
    145      -3.6292      2.00000
    146      -3.6283      2.00000
    147      -3.6278      2.00000
    148      -3.6276      2.00000
    149      -3.6275      2.00000
    150      -3.6266      2.00000
    151      -3.6207      2.00000
    152      -3.6207      2.00000
    153      -3.6157      2.00000
    154      -3.6157      2.00000
    155      -3.6089      2.00000
    156      -3.6088      2.00000
    157      -3.6034      2.00000
    158      -2.3446      2.00000
    159      -1.7148      2.00000
    160      -1.6995      2.00000
    161      -1.6984      2.00000
    162      -1.2849      2.00000
    163      -1.2836      2.00000
    164      -1.2751      2.00000
    165      -1.2591      2.00000
    166      -1.2549      2.00000
    167      -1.2535      2.00000
    168      -1.1681      2.00000
    169      -1.0497      2.00000
    170      -0.8918      2.00000
    171      -0.8916      2.00000
    172      -0.8455      2.00000
    173      -0.8444      2.00000
    174      -0.7575      2.00000
    175      -0.3339      2.00000
    176      -0.1903      2.00000
    177      -0.1864      2.00000
    178      -0.1283      2.00000
    179       0.0086      2.00000
    180       0.0866      2.00000
    181       0.0870      2.00000
    182       0.1194      2.00000
    183       0.1196      2.00000
    184       0.5660      2.00000
    185       0.5662      2.00000
    186       0.7325      2.00000
    187       0.7339      2.00000
    188       0.7500      2.00000
    189       0.7638      2.00000
    190       0.8373      2.00000
    191       0.9998      2.00000
    192       1.0011      2.00000
    193       1.0872      2.00000
    194       1.1143      2.00000
    195       1.1158      2.00000
    196       1.1344      2.00000
    197       1.1354      2.00000
    198       1.2072      2.00000
    199       1.3159      2.00000
    200       1.3165      2.00000
    201       1.3283      2.00000
    202       1.3762      2.00000
    203       1.3762      2.00000
    204       1.3816      2.00000
    205       1.4083      2.00000
    206       1.4092      2.00000
    207       1.4162      2.00000
    208       1.4407      2.00000
    209       1.4415      2.00000
    210       1.4837      2.00000
    211       1.8118      2.00000
    212       1.8124      2.00000
    213       1.8874      2.00000
    214       1.9254      2.00000
    215       1.9257      2.00000
    216       2.0131      2.00000
    217       2.0139      2.00000
    218       2.0722      2.00000
    219       2.2009      2.00000
    220       2.2032      2.00000
    221       2.2717      2.00000
    222       2.2742      2.00000
    223       2.2845      2.00000
    224       2.3123      2.00000
    225       2.4246      2.00000
    226       2.4601      2.00000
    227       2.4614      2.00000
    228       2.5592      2.00000
    229       2.6243      2.00000
    230       2.6264      2.00000
    231       2.8925      2.00000
    232       2.8930      2.00000
    233       2.9827      2.00000
    234       3.0220      2.00000
    235       3.0937      2.00000
    236       3.0942      2.00000
    237       3.1102      2.00000
    238       3.1104      2.00000
    239       3.1284      2.00000
    240       3.1298      2.00000
    241       3.1473      2.00000
    242       3.1905      2.00000
    243       3.1911      2.00000
    244       3.2009      2.00000
    245       3.2921      2.00000
    246       3.2922      2.00000
    247       3.3307      2.00000
    248       3.3310      2.00000
    249       3.3488      2.00000
    250       3.3504      2.00000
    251       3.4268      2.00000
    252       3.4743      2.00000
    253       3.4746      2.00000
    254       4.2863      0.00000
    255       4.8153      0.00000
    256       5.4805      0.00000
    257       5.4811      0.00000
    258       5.7552      0.00000
    259       6.3179      0.00000
    260       6.3191      0.00000
    261       6.3973      0.00000
    262       6.4859      0.00000
    263       6.4872      0.00000
    264       6.6360      0.00000
    265       6.6647      0.00000
    266       6.9182      0.00000
    267       6.9207      0.00000
    268       6.9390      0.00000
    269       6.9710      0.00000
    270       6.9719      0.00000
    271       7.3352      0.00000
    272       7.4432      0.00000
    273       7.5149      0.00000
    274       7.6509      0.00000
    275       7.6813      0.00000
    276       7.6821      0.00000
    277       7.8639      0.00000
    278       7.9649      0.00000
    279       7.9674      0.00000
    280       7.9680      0.00000
    281       7.9705      0.00000
    282       8.2157      0.00000
    283       8.5182      0.00000
    284       8.5187      0.00000
    285       8.8602      0.00000
    286       8.8605      0.00000
    287       9.0146      0.00000
    288       9.0162      0.00000
    289       9.1005      0.00000
    290       9.1138      0.00000
    291       9.1273      0.00000
    292       9.1275      0.00000
    293       9.1990      0.00000
    294       9.3483      0.00000
    295       9.3979      0.00000
    296       9.3980      0.00000
    297       9.6180      0.00000
    298       9.6189      0.00000
    299       9.6494      0.00000
    300       9.6504      0.00000
    301       9.9760      0.00000
    302       9.9952      0.00000
    303      10.0246      0.00000
    304      10.1395      0.00000

 k-point     2 :       0.3333    0.0000    0.0000
  band No.  band energies     occupation 
      1     -10.8136      2.00000
      2     -10.8096      2.00000
      3     -10.7021      2.00000
      4     -10.5473      2.00000
      5     -10.5466      2.00000
      6     -10.4081      2.00000
      7     -10.3960      2.00000
      8     -10.3955      2.00000
      9     -10.3844      2.00000
     10     -10.3699      2.00000
     11     -10.3563      2.00000
     12     -10.3484      2.00000
     13     -10.3362      2.00000
     14     -10.3103      2.00000
     15     -10.2518      2.00000
     16     -10.2149      2.00000
     17     -10.1837      2.00000
     18     -10.1810      2.00000
     19     -10.1482      2.00000
     20     -10.1411      2.00000
     21     -10.1165      2.00000
     22     -10.1129      2.00000
     23     -10.0972      2.00000
     24     -10.0959      2.00000
     25     -10.0879      2.00000
     26     -10.0818      2.00000
     27     -10.0775      2.00000
     28     -10.0689      2.00000
     29     -10.0664      2.00000
     30     -10.0660      2.00000
     31     -10.0565      2.00000
     32     -10.0550      2.00000
     33     -10.0264      2.00000
     34     -10.0199      2.00000
     35     -10.0067      2.00000
     36     -10.0054      2.00000
     37     -10.0046      2.00000
     38      -9.9923      2.00000
     39      -9.9516      2.00000
     40      -9.9440      2.00000
     41      -9.9429      2.00000
     42      -9.9375      2.00000
     43      -9.9341      2.00000
     44      -9.9212      2.00000
     45      -9.9152      2.00000
     46      -9.9147      2.00000
     47      -9.9104      2.00000
     48      -9.9057      2.00000
     49      -9.9038      2.00000
     50      -9.9031      2.00000
     51      -9.9012      2.00000
     52      -9.8993      2.00000
     53      -9.8976      2.00000
     54      -9.8967      2.00000
     55      -9.8888      2.00000
     56      -9.8849      2.00000
     57      -9.8771      2.00000
     58      -9.8752      2.00000
     59      -9.8742      2.00000
     60      -9.8707      2.00000
     61      -9.8658      2.00000
     62      -9.8584      2.00000
     63      -9.8433      2.00000
     64      -9.8270      2.00000
     65      -9.8231      2.00000
     66      -9.8192      2.00000
     67      -9.7760      2.00000
     68      -9.7755      2.00000
     69      -9.7749      2.00000
     70      -9.7747      2.00000
     71      -9.7703      2.00000
     72      -9.7675      2.00000
     73      -9.7616      2.00000
     74      -9.7615      2.00000
     75      -9.7585      2.00000
     76      -9.7572      2.00000
     77      -9.7532      2.00000
     78      -9.7529      2.00000
     79      -9.7512      2.00000
     80      -9.7502      2.00000
     81      -9.7407      2.00000
     82      -9.7375      2.00000
     83      -9.6693      2.00000
     84      -9.6397      2.00000
     85      -9.6396      2.00000
[...]
 20        0.716   0.582   9.945  11.244
 21        0.715   0.588   9.947  11.250
 22        0.715   0.588   9.947  11.250
 23        0.717   0.583   9.945  11.245
 24        0.716   0.584   9.946  11.246
 25        0.736   0.567   9.940  11.244
 26        1.339   2.359   0.000   3.698
 27        1.338   2.368   0.000   3.706
 28        1.343   2.355   0.000   3.698
 29        1.337   2.367   0.000   3.704
 30        1.338   2.368   0.000   3.706
 31        1.339   2.359   0.000   3.698
 32        1.337   2.367   0.000   3.704
 33        1.343   2.356   0.000   3.698
 34        1.339   2.399   0.000   3.738
 35        1.339   2.359   0.000   3.698
 36        1.339   2.359   0.000   3.698
 37        1.339   2.398   0.000   3.737
 38        1.339   2.359   0.000   3.698
 39        1.339   2.359   0.000   3.698
 40        1.343   2.355   0.000   3.698
 41        1.338   2.368   0.000   3.706
 42        1.337   2.367   0.000   3.704
 43        1.338   2.368   0.000   3.706
 44        1.337   2.367   0.000   3.704
 45        1.343   2.354   0.000   3.697
 46        1.338   2.368   0.000   3.706
 47        1.339   2.359   0.000   3.698
 48        1.338   2.368   0.000   3.706
 49        1.339   2.359   0.000   3.698
 50        1.337   2.367   0.000   3.704
 51        1.343   2.354   0.000   3.697
 52        1.343   2.354   0.000   3.697
 53        1.337   2.367   0.000   3.704
 54        1.339   2.359   0.000   3.698
 55        1.339   2.359   0.000   3.698
 56        1.339   2.359   0.000   3.698
 57        1.339   2.359   0.000   3.698
------------------------------------------------
tot       58.370  87.723 245.523 391.617
 
    CHARGE:  cpu time    3.01: real time    3.02
    FORLOC:  cpu time    0.08: real time    0.07
    FORNL :  cpu time   53.18: real time   53.19
    FORCOR:  cpu time    0.30: real time    0.30
    FORHAR:  cpu time    0.13: real time    0.13
    MIXING:  cpu time    0.01: real time    0.01
    OFIELD:  cpu time    0.00: real time    0.00

 VOLUME and BASIS-vectors are now :
 -----------------------------------------------------------------------------
  energy-cutoff  :      600.00
  volume of cell :     1339.13
      direct lattice vectors                 reciprocal lattice vectors
    11.022353692  0.000000000  0.000000000     0.090724724  0.000000000  0.000000000
     0.000000000 11.022353692  0.000000000     0.000000000  0.090724724  0.000000000
     0.000000000  0.000000000 11.022353692     0.000000000  0.000000000  0.090724724

  length of vectors
    11.022353692 11.022353692 11.022353692     0.090724724  0.090724724  0.090724724


 FORCES acting on ions
    electron-ion (+dipol)            ewald-force                    non-local-force                 convergence-correction
 -----------------------------------------------------------------------------------------------
   0.165E+02 0.147E+01 -.165E+02   -.169E+02 -.918E+00 0.169E+02   0.351E+00 -.557E+00 -.351E+00   0.110E-02 -.260E-02 -.991E-03
   0.152E+02 0.152E+02 -.247E+01   -.156E+02 -.155E+02 0.192E+01   0.365E+00 0.369E+00 0.549E+00   0.102E-02 0.108E-02 0.264E-02
   0.246E+01 0.152E+02 -.152E+02   -.190E+01 -.155E+02 0.156E+02   -.550E+00 0.368E+00 -.364E+00   -.249E-02 0.118E-02 -.975E-03
   -.999E+02 -.985E+02 0.999E+02   0.102E+03 0.100E+03 -.102E+03   -.184E+01 -.190E+01 0.184E+01   0.295E-03 0.183E-03 -.179E-03
   -.165E+02 -.166E+02 0.188E+01   0.168E+02 0.170E+02 -.133E+01   -.350E+00 -.352E+00 -.549E+00   -.103E-02 -.962E-03 -.270E-02
   -.188E+01 -.167E+02 0.165E+02   0.133E+01 0.170E+02 -.168E+02   0.550E+00 -.351E+00 0.352E+00   0.252E-02 -.985E-03 0.949E-03
   0.991E+02 0.101E+03 -.991E+02   -.101E+03 -.103E+03 0.101E+03   0.191E+01 0.186E+01 -.191E+01   -.301E-03 -.255E-03 0.293E-03
   -.151E+02 -.188E+01 0.151E+02   0.154E+02 0.135E+01 -.155E+02   -.366E+00 0.524E+00 0.365E+00   -.113E-02 0.254E-02 0.101E-02
   -.696E+02 0.697E+02 -.244E+00   0.705E+02 -.707E+02 0.263E+00   -.888E+00 0.928E+00 -.208E-01   -.115E-02 0.124E-02 0.512E-04
   -.635E+00 0.156E+01 -.332E+01   0.659E+00 -.159E+01 0.327E+01   -.265E-01 0.249E-01 0.535E-01   -.187E-05 -.125E-03 0.174E-04
   -.831E+01 -.126E+02 0.128E+02   0.870E+01 0.130E+02 -.132E+02   -.396E+00 -.405E+00 0.392E+00   0.102E-03 -.247E-02 0.256E-02
   0.126E+02 0.731E+01 -.126E+02   -.130E+02 -.770E+01 0.130E+02   0.388E+00 0.386E+00 -.387E+00   0.239E-02 -.121E-03 -.251E-02
   0.384E+00 -.167E+00 -.369E+00   -.368E+00 0.184E+00 0.353E+00   -.184E-01 -.222E-01 0.183E-01   0.134E-04 -.172E-04 0.154E-04
   0.288E+00 -.698E+02 -.692E+02   -.297E+00 0.707E+02 0.701E+02   0.754E-02 -.912E+00 -.938E+00   -.817E-04 -.121E-02 -.118E-02
   0.684E+02 0.319E-01 0.700E+02   -.693E+02 -.227E-01 -.709E+02   0.919E+00 -.324E-02 0.953E+00   0.113E-02 -.373E-04 0.122E-02
   -.128E+02 -.126E+02 0.831E+01   0.132E+02 0.130E+02 -.871E+01   -.392E+00 -.405E+00 0.396E+00   -.248E-02 -.259E-02 -.142E-03
   -.516E-01 -.485E+01 0.820E-01   0.681E-01 0.477E+01 -.985E-01   -.164E-01 0.748E-01 0.168E-01   0.385E-04 0.640E-04 0.142E-04
   0.966E+01 0.140E+02 -.127E+02   -.100E+02 -.144E+02 0.132E+02   0.353E+00 0.385E+00 -.401E+00   -.165E-03 0.249E-02 -.251E-02
   0.333E+01 0.157E+01 0.636E+00   -.328E+01 -.160E+01 -.659E+00   -.534E-01 0.243E-01 0.260E-01   -.499E-04 -.562E-04 0.267E-04
   0.268E+00 0.698E+02 0.697E+02   -.286E+00 -.707E+02 -.706E+02   0.199E-01 0.926E+00 0.888E+00   0.402E-04 0.124E-02 0.119E-02
   0.127E+02 0.140E+02 -.967E+01   -.131E+02 -.144E+02 0.100E+02   0.401E+00 0.384E+00 -.353E+00   0.252E-02 0.257E-02 0.118E-03
   -.133E+02 -.107E+02 0.132E+02   0.137E+02 0.110E+02 -.137E+02   -.395E+00 -.360E+00 0.397E+00   -.241E-02 0.182E-03 0.255E-02
   -.700E+02 0.222E-01 -.684E+02   0.709E+02 -.141E-01 0.693E+02   -.953E+00 -.221E-02 -.919E+00   -.124E-02 -.146E-03 -.112E-02
   0.692E+02 -.698E+02 -.287E+00   -.702E+02 0.707E+02 0.296E+00   0.937E+00 -.912E+00 -.855E-02   0.112E-02 -.115E-02 0.491E-04
   0.628E+00 0.792E-01 -.625E+00   -.409E+00 -.406E+00 0.407E+00   -.223E+00 0.336E+00 0.223E+00   -.137E-03 0.240E-03 0.209E-03
   0.556E+02 0.628E+02 0.667E+02   -.545E+02 -.627E+02 -.665E+02   -.109E+01 -.153E+00 -.146E+00   -.704E-03 -.668E-03 0.146E-03
   -.720E+02 -.721E+02 0.511E+02   0.716E+02 0.717E+02 -.508E+02   0.384E+00 0.362E+00 -.321E+00   -.839E-04 -.116E-03 -.119E-02
   0.636E+02 0.469E+02 -.455E+02   -.647E+02 -.460E+02 0.446E+02   0.106E+01 -.882E+00 0.903E+00   -.133E-03 -.880E-03 0.812E-03
   0.560E+02 -.582E+02 -.560E+02   -.553E+02 0.575E+02 0.553E+02   -.751E+00 0.722E+00 0.751E+00   -.463E-03 0.206E-02 0.224E-03
   0.722E+02 0.724E+02 -.511E+02   -.719E+02 -.720E+02 0.508E+02   -.368E+00 -.376E+00 0.295E+00   0.868E-04 0.124E-03 0.126E-02
   -.634E+02 -.555E+02 -.658E+02   0.633E+02 0.544E+02 0.656E+02   0.139E+00 0.107E+01 0.180E+00   0.686E-03 0.609E-03 -.134E-03
   0.578E+02 -.562E+02 0.557E+02   -.571E+02 0.554E+02 -.550E+02   -.731E+00 0.738E+00 -.732E+00   -.205E-02 0.462E-03 -.356E-03
   -.450E+02 -.629E+02 0.450E+02   0.441E+02 0.640E+02 -.441E+02   0.908E+00 -.102E+01 -.907E+00   0.852E-03 0.133E-03 -.831E-03
   0.275E+02 0.295E+02 -.275E+02   -.257E+02 -.278E+02 0.257E+02   -.175E+01 -.172E+01 0.175E+01   -.118E-02 -.137E-02 0.147E-02
   0.660E+02 -.656E+02 0.552E+02   -.658E+02 0.654E+02 -.541E+02   -.172E+00 0.157E+00 -.108E+01   0.917E-04 0.697E-03 -.600E-03
   -.556E+02 0.670E+02 0.634E+02   0.545E+02 -.668E+02 -.632E+02   0.108E+01 -.136E+00 -.174E+00   0.836E-03 0.173E-03 -.721E-03
   -.291E+02 -.262E+02 0.291E+02   0.274E+02 0.244E+02 -.274E+02   0.175E+01 0.179E+01 -.175E+01   0.128E-02 0.126E-02 -.151E-02
   -.664E+02 0.553E+02 -.649E+02   0.663E+02 -.542E+02 0.648E+02   0.146E+00 -.110E+01 0.153E+00   -.152E-03 -.828E-03 0.665E-03
   0.648E+02 -.662E+02 -.554E+02   -.647E+02 0.660E+02 0.543E+02   -.140E+00 0.181E+00 0.109E+01   -.697E-03 -.104E-03 0.576E-03
   0.455E+02 0.469E+02 -.636E+02   -.446E+02 -.460E+02 0.647E+02   -.904E+00 -.882E+00 -.106E+01   -.812E-03 -.884E-03 0.125E-03
   -.720E+02 -.512E+02 0.720E+02   0.717E+02 0.509E+02 -.717E+02   0.370E+00 0.315E+00 -.369E+00   -.859E-04 0.114E-02 0.134E-03
   -.584E+02 0.556E+02 -.559E+02   0.577E+02 -.548E+02 0.551E+02   0.745E+00 -.748E+00 0.747E+00   0.205E-02 -.475E-03 0.210E-03
   0.720E+02 0.504E+02 -.720E+02   -.717E+02 -.501E+02 0.717E+02   -.377E+00 -.299E+00 0.377E+00   0.486E-04 -.993E-03 -.417E-04
   -.558E+02 -.562E+02 -.579E+02   0.550E+02 0.554E+02 0.571E+02   0.731E+00 0.739E+00 0.732E+00   0.341E-03 0.206E-03 0.210E-02
   -.685E+02 -.474E+02 0.478E+02   0.697E+02 0.466E+02 -.470E+02   -.116E+01 0.784E+00 -.787E+00   0.678E-04 0.766E-03 -.849E-03
   0.511E+02 0.724E+02 -.723E+02   -.508E+02 -.720E+02 0.719E+02   -.295E+00 -.376E+00 0.368E+00   -.104E-02 0.800E-04 -.117E-03
   0.658E+02 -.555E+02 0.634E+02   -.656E+02 0.544E+02 -.633E+02   -.180E+00 0.107E+01 -.139E+00   0.141E-03 0.816E-03 -.671E-03
   -.511E+02 -.721E+02 0.720E+02   0.508E+02 0.717E+02 -.716E+02   0.322E+00 0.362E+00 -.384E+00   0.922E-03 -.112E-03 0.525E-04
   -.667E+02 0.628E+02 -.556E+02   0.665E+02 -.627E+02 0.545E+02   0.147E+00 -.154E+00 0.108E+01   -.940E-04 -.638E-03 0.726E-03
   0.559E+02 0.556E+02 0.584E+02   -.551E+02 -.548E+02 -.577E+02   -.747E+00 -.748E+00 -.744E+00   -.221E-03 -.240E-03 -.207E-02
   0.494E+02 0.697E+02 -.494E+02   -.487E+02 -.709E+02 0.487E+02   -.735E+00 0.121E+01 0.734E+00   -.795E-03 -.294E-04 0.856E-03
   -.478E+02 -.473E+02 0.686E+02   0.470E+02 0.465E+02 -.697E+02   0.786E+00 0.785E+00 0.116E+01   0.841E-03 0.788E-03 -.631E-04
   -.557E+02 0.577E+02 0.557E+02   0.549E+02 -.569E+02 -.550E+02   0.737E+00 -.747E+00 -.738E+00   0.448E-03 -.206E-02 -.192E-03
   -.634E+02 0.670E+02 0.556E+02   0.632E+02 -.669E+02 -.545E+02   0.176E+00 -.136E+00 -.108E+01   0.651E-03 0.112E-03 -.633E-03
   0.554E+02 -.662E+02 -.648E+02   -.543E+02 0.660E+02 0.646E+02   -.109E+01 0.180E+00 0.140E+00   -.795E-03 -.172E-03 0.656E-03
   0.649E+02 0.553E+02 0.664E+02   -.648E+02 -.542E+02 -.663E+02   -.153E+00 -.110E+01 -.147E+00   -.646E-03 -.587E-03 0.135E-03
   -.552E+02 -.656E+02 -.660E+02   0.541E+02 0.654E+02 0.658E+02   0.108E+01 0.157E+00 0.173E+00   0.596E-03 0.695E-03 -.133E-03
 -----------------------------------------------------------------------------------------------
   0.331E+00 -.456E+00 -.335E+00   0.284E-13 -.199E-12 -.114E-12   -.330E+00 0.455E+00 0.334E+00   -.388E-03 0.262E-03 0.655E-03
 
 
 POSITION                                       TOTAL-FORCE (eV/Angst)
 -----------------------------------------------------------------------------------
      0.00621     11.00684     11.01612         0.000144     -0.002906     -0.000219
      0.00848      5.51567      5.52650         0.001493      0.003565      0.002128
      5.49578      5.51558     11.01384        -0.001669      0.003777     -0.001607
      5.79223      0.31012      5.22999         0.009298     -0.004283     -0.009006
      8.25960      2.74474      8.25404         0.006727      0.007214      0.000724
      2.76837      2.74466      2.76275        -0.000320      0.007528     -0.006326
      2.45149      8.00128      8.57080        -0.009252     -0.023172      0.009398
      8.25813      8.27759      2.76433         0.007801     -0.001902     -0.008154
      6.92094      6.84974      6.88966        -0.005591      0.005735     -0.001757
      4.13820      9.63815      1.36888        -0.002952      0.004025      0.004412
      9.75963      1.42079      4.08936        -0.001885      0.010096     -0.012284
      1.33558      4.01412      9.68680        -0.012635     -0.002020      0.012970
      9.64555      4.13389      1.37680        -0.002839     -0.005321      0.002521
      4.13314      1.41046      9.68453        -0.001571     -0.002929     -0.001289
      1.34208      9.64413      4.09288         0.015753      0.005964     -0.003418
      6.93302      1.42082      1.26271         0.012133      0.010082      0.001794
      4.13416      4.11509      6.88811         0.000177     -0.001454      0.000394
      9.52770      6.84514      9.68727         0.006579     -0.019131      0.013504
      9.65346      9.63814      6.88418        -0.004654      0.003598      0.003106
      4.13272      6.84966      4.10135         0.002301      0.005138      0.005489
      1.33507      6.84514      1.49465        -0.013375     -0.019326     -0.006800
      6.93344      4.24733      4.08904         0.015310     -0.002987     -0.014403
      6.92945      9.64414      9.68028         0.003228      0.005691     -0.015714
      1.33773      1.41040      6.88926         0.001065     -0.002875      0.001211
      4.14510      9.61999      6.87722        -0.004111      0.009409      0.004349
      4.25551      4.23526      4.27790         0.001453      0.001382      0.008879
      6.74601      1.23392      9.69604         0.001729     -0.004720     -0.003615
      1.43423      9.71074      6.82266         0.013830     -0.004634      0.003694
      9.71538      6.78094      1.30695        -0.003683      0.012922      0.003885
      1.52277      7.03241      4.08757        -0.009116     -0.006179     -0.016138
      9.54167      9.52045      9.49782        -0.001261     -0.002545     -0.012421
      6.99566      4.06279      1.44522         0.002471     -0.008047      0.018987
      4.06641      1.31477      6.95581        -0.010207     -0.007224      0.010541
      7.16576      1.65391      3.85659         0.018914      0.013477     -0.018693
      1.52120      4.02219      7.01053         0.013793      0.005884      0.003501
      4.01304      7.03030      1.48604        -0.004057      0.004892     -0.000048
      1.10114      6.60796      9.92128        -0.001443      0.007272      0.001157
      6.75000      9.76520      1.27082        -0.019952      0.000387      0.001498
      9.74646      1.22823      6.76575         0.003726     -0.005083      0.000164
      4.19971      9.71080      9.58799        -0.004025     -0.004764     -0.013571
      6.74531      6.83706      4.27707        -0.005523     -0.002300      0.005577
      1.27113      4.20236      1.30694         0.015943      0.001290      0.000628
      1.52114      1.42232      9.50118        -0.004798      0.012584      0.004980
      9.57715      4.06275      4.02663        -0.018934     -0.007717     -0.001853
      6.83014      9.58270      6.95096        -0.009160     -0.004590      0.004696
      6.93472      7.03243      9.49965         0.016427     -0.006057      0.009120
      1.52455      9.52044      1.48060         0.012495     -0.002547      0.001824
      1.32628      1.23393      4.27631         0.003719     -0.004916     -0.001319
      6.74450      4.23561      6.76755        -0.009474      0.000349     -0.004574
      9.71560      4.20242      9.75121        -0.001290      0.000797     -0.015831
      4.19102      6.94173      6.83126         0.000325      0.017256     -0.000445
      4.07145      9.58270      4.19221        -0.005254     -0.004837      0.008898
      9.57566      1.48420      1.44676        -0.013783     -0.000237      0.013455
      9.53621      7.03030      7.00937         0.000887      0.004920      0.003526
      4.25656      1.22834      1.27575         0.000232     -0.005913     -0.003426
      9.75154      9.76525      4.27237        -0.001250     -0.000068      0.019796
      4.01178      4.02225      9.50111        -0.003889      0.005449     -0.013894
 -----------------------------------------------------------------------------------
    total drift:                               -0.000084     -0.000487      0.000004


--------------------------------------------------------------------------------------------------------



  FREE ENERGIE OF THE ION-ELECTRON SYSTEM (eV)
  ---------------------------------------------------
  free  energy   TOTEN  =      -227.53793549 eV

  energy  without entropy=     -227.53793549  energy(sigma->0) =     -227.53793549
 


--------------------------------------------------------------------------------------------------------


    POTLOK:  cpu time    0.28: real time    0.29


--------------------------------------------------------------------------------------------------------


 writing wavefunctions
     LOOP+:  cpu time 1414.30: real time 1492.05
    4ORBIT:  cpu time    0.00: real time    0.00
 


 total charge     
 
# of ion     s       p       d       tot
----------------------------------------
  1        0.402   0.274   9.560  10.236
  2        0.402   0.273   9.560  10.236
  3        0.402   0.273   9.560  10.236
  4        0.435   0.300   9.557  10.292
  5        0.402   0.273   9.560  10.236
  6        0.402   0.273   9.560  10.236
  7        0.435   0.299   9.557  10.290
  8        0.402   0.274   9.560  10.236
  9        0.716   0.582   9.945  11.244
 10        0.732   0.554   9.934  11.221
 11        0.715   0.589   9.947  11.251
 12        0.715   0.589   9.947  11.251
 13        0.713   0.584   9.948  11.245
 14        0.716   0.584   9.946  11.246
 15        0.717   0.583   9.945  11.245
 16        0.715   0.589   9.947  11.251
 17        0.732   0.554   9.934  11.220
 18        0.715   0.588   9.947  11.250
 19        0.732   0.554   9.934  11.221
 20        0.716   0.582   9.945  11.244
 21        0.715   0.588   9.947  11.250
 22        0.715   0.588   9.947  11.250
 23        0.717   0.583   9.945  11.245
 24        0.716   0.584   9.946  11.246
 25        0.736   0.567   9.940  11.244
 26        1.339   2.359   0.000   3.698
 27        1.338   2.368   0.000   3.706
 28        1.343   2.355   0.000   3.698
 29        1.337   2.367   0.000   3.704
 30        1.338   2.368   0.000   3.706
 31        1.339   2.359   0.000   3.698
 32        1.337   2.367   0.000   3.704
 33        1.343   2.356   0.000   3.698
 34        1.339   2.399   0.000   3.738
 35        1.339   2.359   0.000   3.698
 36        1.339   2.359   0.000   3.698
 37        1.339   2.398   0.000   3.737
 38        1.339   2.359   0.000   3.698
 39        1.339   2.359   0.000   3.698
 40        1.343   2.355   0.000   3.698
 41        1.338   2.368   0.000   3.706
 42        1.337   2.367   0.000   3.704
 43        1.338   2.368   0.000   3.706
 44        1.337   2.367   0.000   3.704
 45        1.343   2.354   0.000   3.697
 46        1.338   2.368   0.000   3.706
 47        1.339   2.359   0.000   3.698
 48        1.338   2.368   0.000   3.706
 49        1.339   2.359   0.000   3.698
 50        1.337   2.367   0.000   3.704
 51        1.343   2.354   0.000   3.697
 52        1.343   2.354   0.000   3.697
 53        1.337   2.367   0.000   3.704
 54        1.339   2.359   0.000   3.698
 55        1.339   2.359   0.000   3.698
 56        1.339   2.359   0.000   3.698
 57        1.339   2.359   0.000   3.698
------------------------------------------------
tot       58.370  87.723 245.523 391.617
 
 BZINTS: Fermi energy:  3.514844;506.000000 electrons
         Band energy:***********;  BLOECHL correction:  0.000000

 total amount of memory used by VASP on root node   192496. kBytes
========================================================================

   base      :      30000. kBytes
   nonl-proj :      39115. kBytes
   fftplans  :       9362. kBytes
   grid      :      16450. kBytes
   one-center:        124. kBytes
   wavefun   :      97445. kBytes
 
  
  
 General timing and accounting informations for this job:
 ========================================================
  
                  Total CPU time used (sec):     1559.365
                            User time (sec):     1511.466
                          System time (sec):       47.899
                         Elapsed time (sec):     5827.301
  
                   Maximum memory used (kb):      261080.
                   Average memory used (kb):           0.
  
                          Minor page faults:        23241
                          Major page faults:            0
                 Voluntary context switches:      3597214
