 vasp.5.3.5 31Mar14 (build Jan 22 2015 17:36:29) complex                        
  
 executed on             LinuxIFC date 2016.10.04  10:59:28
 running on   16 total cores
 distrk:  each k-point on   16 cores,    1 groups
 distr:  one band on NCORES_PER_BAND=   1 cores,   16 groups


--------------------------------------------------------------------------------------------------------


 INCAR:
 POTCAR:    PAW_PBE Cd 06Sep2000                  
 POTCAR:    PAW_PBE In_d 06Sep2000                
 POTCAR:    PAW_PBE S 06Sep2000                   

 ----------------------------------------------------------------------------- 
|                                                                             |
|           W    W    AA    RRRRR   N    N  II  N    N   GGGG   !!!           |
|           W    W   A  A   R    R  NN   N  II  NN   N  G    G  !!!           |
|           W    W  A    A  R    R  N N  N  II  N N  N  G       !!!           |
|           W WW W  AAAAAA  RRRRR   N  N N  II  N  N N  G  GGG   !            |
|           WW  WW  A    A  R   R   N   NN  II  N   NN  G    G                |
|           W    W  A    A  R    R  N    N  II  N    N   GGGG   !!!           |
|                                                                             |
|      For optimal performance we recommend to set                            |
|        NCORE= 4 - approx SQRT( number of cores)                             |
|      NCORE specifies how many cores store one orbital (NPAR=cpu/NCORE).     |
|      This setting can  greatly improve the performance of VASP for DFT.     |
|      The default, NPAR=number of cores might be grossly inefficient         |
|      on modern multi-core architectures or massively parallel machines.     |
|      Do your own testing !!!!                                               |
|      Unfortunately you need to use the default for GW and RPA calculations. |
|      (for HF NCORE is supported but not extensively tested yet)             |
|                                                                             |
 ----------------------------------------------------------------------------- 

 POTCAR:    PAW_PBE Cd 06Sep2000                  
   VRHFIN =Cd : s2 d10                                                          
   LEXCH  = PE                                                                  
   EATOM  =  1293.1815 eV,   95.0462 Ry                                         
                                                                                
   TITEL  = PAW_PBE Cd 06Sep2000                                                
   LULTRA =        F    use ultrasoft PP ?                                      
   IUNSCR =        1    unscreen: 0-lin 1-nonlin 2-no                           
   RPACOR =    2.000    partial core radius                                     
   POMASS =  112.411; ZVAL   =   12.000    mass and valenz                      
   RCORE  =    2.300    outmost cutoff radius                                   
   RWIGS  =    2.980; RWIGS  =    1.577    wigner-seitz radius (au A)           
   ENMAX  =  274.336; ENMIN  =  205.752 eV                                      
   RCLOC  =    2.054    cutoff for local pot                                    
   LCOR   =        T    correct aug charges                                     
   LPAW   =        T    paw PP                                                  
   EAUG   =  456.106                                                            
   DEXC   =    0.000                                                            
   RMAX   =    2.358    core radius for proj-oper                               
   RAUG   =    1.300    factor for augmentation sphere                          
   RDEP   =    2.450    radius for radial grids                                 
   RDEPT  =    1.955    core radius for aug-charge                              
                                                                                
   Atomic configuration                                                         
   12 entries                                                                   
     n  l   j            E        occ.                                          
     1  0  0.50    -26519.7817   2.0000                                         
     2  0  0.50     -3936.9612   2.0000                                         
     2  1  1.50     -3532.2230   6.0000                                         
     3  0  0.50      -733.7908   2.0000                                         
     3  1  1.50      -601.0792   6.0000                                         
     3  2  2.50      -393.5307  10.0000                                         
     4  0  0.50      -105.8977   2.0000                                         
     4  1  1.50       -66.9488   6.0000                                         
     4  2  2.50       -11.7331  10.0000                                         
     5  0  0.50        -5.6592   2.0000                                         
     5  1  0.50        -1.3606   0.0000                                         
     4  3  2.50        -1.3606   0.0000                                         
   Description                                                                  
     l       E           TYP  RCUT    TYP  RCUT                                 
     2    -11.7331479     23  2.300                                             
     2    -13.0937305     23  2.300                                             
     0     -5.6591502     23  2.300                                             
     0     -1.5561433     23  2.300                                             
     1     -2.7211652     23  2.300                                             
     1      8.3548275     23  2.300                                             
  local pseudopotential read in
  partial core-charges read in
  partial kinetic energy density read in
  atomic valenz-charges read in
  non local Contribution for L=           2  read in
    real space projection operators read in
  non local Contribution for L=           2  read in
    real space projection operators read in
  non local Contribution for L=           0  read in
    real space projection operators read in
  non local Contribution for L=           0  read in
    real space projection operators read in
  non local Contribution for L=           1  read in
    real space projection operators read in
  non local Contribution for L=           1  read in
    real space projection operators read in
    PAW grid and wavefunctions read in
 
   number of l-projection  operators is LMAX  =           6
   number of lm-projection operators is LMMAX =          18
 
 POTCAR:    PAW_PBE In_d 06Sep2000                
   VRHFIN =In: s2p1                                                             
   LEXCH  = PE                                                                  
   EATOM  =  1576.8302 eV,  115.8937 Ry                                         
                                                                                
   TITEL  = PAW_PBE In_d 06Sep2000                                              
   LULTRA =        F    use ultrasoft PP ?                                      
   IUNSCR =        1    unscreen: 0-lin 1-nonlin 2-no                           
   RPACOR =    2.200    partial core radius                                     
   POMASS =  114.820; ZVAL   =   13.000    mass and valenz                      
   RCORE  =    2.500    outmost cutoff radius                                   
   RWIGS  =    3.170; RWIGS  =    1.677    wigner-seitz radius (au A)           
   ENMAX  =  239.211; ENMIN  =  179.409 eV                                      
   ICORE  =        3    local potential                                         
   LCOR   =        T    correct aug charges                                     
   LPAW   =        T    paw PP                                                  
   EAUG   =  449.704                                                            
   DEXC   =    0.000                                                            
   RMAX   =    2.552    core radius for proj-oper                               
   RAUG   =    1.300    factor for augmentation sphere                          
   RDEP   =    2.630    radius for radial grids                                 
   RDEPT  =    2.033    core radius for aug-charge                              
                                                                                
   Atomic configuration                                                         
   12 entries                                                                   
     n  l   j            E        occ.                                          
     1  0  0.50    -27747.9169   2.0000                                         
     2  0  0.50     -4154.4438   2.0000                                         
     2  1  1.50     -3728.4305   6.0000                                         
     3  0  0.50      -788.3680   2.0000                                         
     3  1  1.50      -648.9215   6.0000                                         
     3  2  2.50      -432.5893  10.0000                                         
     4  0  0.50      -119.6363   2.0000                                         
     4  1  1.50       -78.1086   6.0000                                         
     4  2  2.50       -18.6227  10.0000                                         
     5  0  0.50        -8.2107   2.0000                                         
     5  1  0.50        -2.5185   1.0000                                         
     4  3  2.50        -2.7212   0.0000                                         
   Description                                                                  
     l       E           TYP  RCUT    TYP  RCUT                                 
     2    -18.6226981     23  2.500                                             
     2     -1.3605826     23  2.500                                             
     0     -8.2107305     23  2.500                                             
     0     -6.1485975     23  2.500                                             
     1     -2.5184867     23  2.500                                             
     1      3.2427302     23  2.500                                             
     3     -1.3605826      7  2.500                                             
  local pseudopotential read in
  partial core-charges read in
  partial kinetic energy density read in
  atomic valenz-charges read in
  non local Contribution for L=           2  read in
    real space projection operators read in
  non local Contribution for L=           2  read in
    real space projection operators read in
  non local Contribution for L=           0  read in
    real space projection operators read in
  non local Contribution for L=           0  read in
    real space projection operators read in
  non local Contribution for L=           1  read in
    real space projection operators read in
  non local Contribution for L=           1  read in
    real space projection operators read in
    PAW grid and wavefunctions read in
 
   number of l-projection  operators is LMAX  =           6
   number of lm-projection operators is LMMAX =          18
 
 POTCAR:    PAW_PBE S 06Sep2000                   
   VRHFIN =S : s2p4                                                             
   LEXCH  = PE                                                                  
   EATOM  =   276.8230 eV,   20.3459 Ry                                         
                                                                                
   TITEL  = PAW_PBE S 06Sep2000                                                 
   LULTRA =        F    use ultrasoft PP ?                                      
   IUNSCR =        1    unscreen: 0-lin 1-nonlin 2-no                           
   RPACOR =    1.500    partial core radius                                     
   POMASS =   32.066; ZVAL   =    6.000    mass and valenz                      
   RCORE  =    1.900    outmost cutoff radius                                   
   RWIGS  =    2.200; RWIGS  =    1.164    wigner-seitz radius (au A)           
   ENMAX  =  258.689; ENMIN  =  194.016 eV                                      
   ICORE  =        2    local potential                                         
   LCOR   =        T    correct aug charges                                     
   LPAW   =        T    paw PP                                                  
   EAUG   =  335.092                                                            
   DEXC   =    0.000                                                            
   RMAX   =    1.942    core radius for proj-oper                               
   RAUG   =    1.300    factor for augmentation sphere                          
   RDEP   =    1.954    radius for radial grids                                 
   RDEPT  =    1.744    core radius for aug-charge                              
                                                                                
   Atomic configuration                                                         
    6 entries                                                                   
     n  l   j            E        occ.                                          
     1  0  0.50     -2405.8406   2.0000                                         
     2  0  0.50      -211.7007   2.0000                                         
     2  1  1.50      -156.4958   6.0000                                         
     3  0  0.50       -17.2562   2.0000                                         
     3  1  0.50        -7.0085   4.0000                                         
     3  2  1.50        -6.8029   0.0000                                         
   Description                                                                  
     l       E           TYP  RCUT    TYP  RCUT                                 
     0    -17.2561641     23  1.900                                             
     0    -15.8743224     23  1.900                                             
     1     -7.0085400     23  1.900                                             
     1     -2.7779785     23  1.900                                             
     2     -6.8029130     23  1.900                                             
  local pseudopotential read in
  partial core-charges read in
  partial kinetic energy density read in
  atomic valenz-charges read in
  non local Contribution for L=           0  read in
    real space projection operators read in
  non local Contribution for L=           0  read in
    real space projection operators read in
  non local Contribution for L=           1  read in
    real space projection operators read in
  non local Contribution for L=           1  read in
    real space projection operators read in
    PAW grid and wavefunctions read in
 
   number of l-projection  operators is LMAX  =           4
   number of lm-projection operators is LMMAX =           8
 

 ----------------------------------------------------------------------------- 
|                                                                             |
|  ADVICE TO THIS USER RUNNING 'VASP/VAMP'   (HEAR YOUR MASTER'S VOICE ...):  |
|                                                                             |
|      You have a (more or less) 'large supercell' and for larger cells       |
|      it might be more efficient to use real space projection opertators     |
|      So try LREAL= Auto  in the INCAR   file.                               |
|      Mind: At the moment your POTCAR file does not contain real space       |
|       projectors, and has to be modified,  BUT if you                       |
|      want to do an extremely  accurate calculation you might also keep the  |
|      reciprocal projection scheme          (i.e. LREAL=.FALSE.)             |
|                                                                             |
 ----------------------------------------------------------------------------- 

  PAW_PBE Cd 06Sep2000                  :
 energy of atom  1       EATOM=-1293.1815
 kinetic energy error for atom=    0.0041 (will be added to EATOM!!)
  PAW_PBE In_d 06Sep2000                :
 energy of atom  2       EATOM=-1576.8302
 kinetic energy error for atom=    0.0011 (will be added to EATOM!!)
  PAW_PBE S 06Sep2000                   :
 energy of atom  3       EATOM= -276.8230
 kinetic energy error for atom=    0.0009 (will be added to EATOM!!)
 
 
 POSCAR: Cd In2 S4                               
  positions in direct lattice
  velocities in cartesian coordinates
 exchange correlation table for  LEXCH =        8
   RHO(1)=    0.500       N(1)  =     2000
   RHO(2)=  100.500       N(2)  =     4000
 


--------------------------------------------------------------------------------------------------------


 ion  position               nearest neighbor table
   1  0.999  0.999  0.999-  30 2.55  52 2.57  42 2.57  46 2.57
   2  0.001  0.501  0.501-  53 2.55  29 2.58  34 2.58  43 2.58
   3  0.501  0.501  0.001-  45 2.55  35 2.58  31 2.58  56 2.58
   4  0.501  0.002  0.501-  44 2.55  32 2.58  33 2.58  51 2.58
   5  0.748  0.249  0.748-  48 2.54  26 2.57  38 2.57  49 2.59
   6  0.251  0.251  0.251-  25 2.55  41 2.57  54 2.57  47 2.57
   7  0.249  0.748  0.748-  50 2.54  36 2.57  27 2.57  39 2.59
   8  0.748  0.748  0.249-  40 2.54  37 2.57  28 2.57  55 2.59
   9  0.625  0.625  0.625-  48 2.70  50 2.70  40 2.70  45 2.70  53 2.70  44 2.70  23 3.86  19 3.86
                            18 3.86  17 3.87  22 3.87  20 3.87
  10  0.375  0.875  0.125-  35 2.64  37 2.65  54 2.65  39 2.66  46 2.66  51 2.66  14 3.89  16 3.90
                            21 3.90  23 3.90  20 3.90  15 3.91
  11  0.875  0.125  0.375-  33 2.64  38 2.65  47 2.65  55 2.66  52 2.66  43 2.66  15 3.89  24 3.90
                            16 3.90  19 3.90  22 3.90  13 3.91
  12  0.125  0.375  0.875-  34 2.64  36 2.65  41 2.65  49 2.66  42 2.66  56 2.66  13 3.89  21 3.90
                            24 3.90  18 3.90  17 3.90  14 3.91
  13  0.875  0.375  0.125-  31 2.64  28 2.65  41 2.65  49 2.66  52 2.66  43 2.66  12 3.89  21 3.90
                            16 3.90  18 3.90  22 3.90  11 3.91
  14  0.375  0.125  0.875-  32 2.64  26 2.65  54 2.65  39 2.66  42 2.66  56 2.66  10 3.89  16 3.90
                            24 3.90  23 3.90  17 3.90  12 3.91
  15  0.125  0.875  0.375-  29 2.64  27 2.65  47 2.65  55 2.66  46 2.66  51 2.66  11 3.89  24 3.90
                            21 3.90  19 3.90  20 3.90  10 3.91
  16  0.625  0.125  0.125-  37 2.64  26 2.64  31 2.64  33 2.65  54 2.66  52 2.66  14 3.90  10 3.90
                            13 3.90  11 3.90  22 3.93  23 3.93
  17  0.377  0.377  0.626-  50 2.62  48 2.62  34 2.66  32 2.66  25 2.67  56 2.67   9 3.87  20 3.89
                            22 3.89  12 3.90  14 3.90  24 3.93
  18  0.873  0.624  0.873-  45 2.62  53 2.62  30 2.66  49 2.66  36 2.67  28 2.67   9 3.86  23 3.88
                            19 3.88  12 3.90  13 3.90  21 3.93
  19  0.873  0.873  0.624-  44 2.62  53 2.62  30 2.66  55 2.66  27 2.67  38 2.67   9 3.86  23 3.88
                            18 3.88  11 3.90  15 3.90  24 3.93
  20  0.377  0.626  0.377-  50 2.62  40 2.62  29 2.66  35 2.66  25 2.67  51 2.67   9 3.87  17 3.89
                            22 3.89  10 3.90  15 3.90  21 3.93
  21  0.125  0.625  0.125-  28 2.64  36 2.64  29 2.64  35 2.65  41 2.66  46 2.66  12 3.90  13 3.90
                            10 3.90  15 3.90  20 3.93  18 3.93
  22  0.626  0.377  0.377-  40 2.62  48 2.62  31 2.66  33 2.66  25 2.67  43 2.67   9 3.87  20 3.89
                            17 3.89  13 3.90  11 3.90  16 3.93
  23  0.624  0.873  0.873-  44 2.62  45 2.62  30 2.66  39 2.66  37 2.67  26 2.67   9 3.86  19 3.88
                            18 3.88  10 3.90  14 3.90  16 3.93
  24  0.125  0.125  0.625-  27 2.64  38 2.64  34 2.64  32 2.65  47 2.66  42 2.66  11 3.90  15 3.90
                            12 3.90  14 3.90  17 3.93  19 3.93
  25  0.384  0.384  0.384-   6 2.55  20 2.67  17 2.67  22 2.67
  26  0.615  0.115  0.886-   5 2.57  16 2.64  14 2.65  23 2.67
  27  0.115  0.886  0.615-   7 2.57  24 2.64  15 2.65  19 2.67
  28  0.886  0.615  0.115-   8 2.57  21 2.64  13 2.65  18 2.67
  29  0.136  0.636  0.364-   2 2.58  15 2.64  21 2.64  20 2.66
  30  0.866  0.866  0.866-   1 2.55  19 2.66  23 2.66  18 2.66
  31  0.636  0.364  0.136-   3 2.58  13 2.64  16 2.64  22 2.66
  32  0.364  0.136  0.636-   4 2.58  14 2.64  24 2.65  17 2.66
  33  0.636  0.136  0.364-   4 2.58  11 2.64  16 2.65  22 2.66
  34  0.136  0.364  0.636-   2 2.58  12 2.64  24 2.64  17 2.66
  35  0.364  0.636  0.136-   3 2.58  10 2.64  21 2.65  20 2.66
  36  0.115  0.615  0.886-   7 2.57  21 2.64  12 2.65  18 2.67
  37  0.615  0.886  0.115-   8 2.57  16 2.64  10 2.65  23 2.67
  38  0.886  0.115  0.615-   5 2.57  24 2.64  11 2.65  19 2.67
  39  0.383  0.884  0.884-   7 2.59  10 2.66  14 2.66  23 2.66
  40  0.614  0.614  0.380-   8 2.54  20 2.62  22 2.62   9 2.70
  41  0.115  0.384  0.115-   6 2.57  13 2.65  12 2.65  21 2.66
  42  0.135  0.135  0.866-   1 2.57  12 2.66  14 2.66  24 2.66
  43  0.867  0.366  0.366-   2 2.58  13 2.66  11 2.66  22 2.67
  44  0.635  0.870  0.635-   4 2.55  19 2.62  23 2.62   9 2.70
  45  0.635  0.635  0.870-   3 2.55  23 2.62  18 2.62   9 2.70
  46  0.135  0.866  0.135-   1 2.57  15 2.66  10 2.66  21 2.66
  47  0.115  0.115  0.384-   6 2.57  11 2.65  15 2.65  24 2.66
  48  0.614  0.380  0.614-   5 2.54  22 2.62  17 2.62   9 2.70
  49  0.884  0.383  0.884-   5 2.59  12 2.66  13 2.66  18 2.66
  50  0.380  0.614  0.614-   7 2.54  17 2.62  20 2.62   9 2.70
  51  0.366  0.867  0.366-   4 2.58  10 2.66  15 2.66  20 2.67
  52  0.866  0.135  0.135-   1 2.57  13 2.66  11 2.66  16 2.66
  53  0.870  0.635  0.635-   2 2.55  19 2.62  18 2.62   9 2.70
  54  0.384  0.115  0.115-   6 2.57  14 2.65  10 2.65  16 2.66
  55  0.884  0.884  0.383-   8 2.59  15 2.66  11 2.66  19 2.66
  56  0.366  0.366  0.867-   3 2.58  14 2.66  12 2.66  17 2.67
 
  LATTYP: Found a simple cubic cell.
 ALAT       =    11.0223536917
  
  Lattice vectors:
  
 A1 = (  11.0223536917,   0.0000000000,   0.0000000000)
 A2 = (   0.0000000000,  11.0223536917,   0.0000000000)
 A3 = (   0.0000000000,   0.0000000000,  11.0223536917)


Analysis of symmetry for initial positions (statically):
=====================================================================
 Subroutine PRICEL returns:
 Original cell was already a primitive cell.
 

 Routine SETGRP: Setting up the symmetry group for a 
 simple cubic supercell.


 Subroutine GETGRP returns: Found  1 space group operations
 (whereof  1 operations were pure point group operations)
 out of a pool of 48 trial point group operations.


The static configuration has the point symmetry C_1 .


Analysis of symmetry for dynamics (positions and initial velocities):
=====================================================================
 Subroutine PRICEL returns:
 Original cell was already a primitive cell.
 

 Routine SETGRP: Setting up the symmetry group for a 
 simple cubic supercell.


 Subroutine GETGRP returns: Found  1 space group operations
 (whereof  1 operations were pure point group operations)
 out of a pool of 48 trial point group operations.


The dynamic configuration has the point symmetry C_1 .
 
 
 KPOINTS: Automatic mesh                          

Automatic generation of k-mesh.
Space group operators:
 irot       det(A)        alpha          n_x          n_y          n_z        tau_x        tau_y        tau_z
    1     1.000000     0.000001     1.000000     0.000000     0.000000     0.000000     0.000000     0.000000
 
 Subroutine IBZKPT returns following result:
 ===========================================
 
 Found     14 irreducible k-points:
 
 Following reciprocal coordinates:
            Coordinates               Weight
  0.000000  0.000000  0.000000      1.000000
  0.333333  0.000000  0.000000      2.000000
  0.000000  0.333333  0.000000      2.000000
  0.333333  0.333333  0.000000      2.000000
 -0.333333  0.333333  0.000000      2.000000
  0.000000  0.000000  0.333333      2.000000
  0.333333  0.000000  0.333333      2.000000
 -0.333333  0.000000  0.333333      2.000000
  0.000000  0.333333  0.333333      2.000000
  0.333333  0.333333  0.333333      2.000000
 -0.333333  0.333333  0.333333      2.000000
  0.000000 -0.333333  0.333333      2.000000
  0.333333 -0.333333  0.333333      2.000000
 -0.333333 -0.333333  0.333333      2.000000
 
 Following cartesian coordinates:
            Coordinates               Weight
  0.000000  0.000000  0.000000      1.000000
  0.030242  0.000000  0.000000      2.000000
  0.000000  0.030242  0.000000      2.000000
  0.030242  0.030242  0.000000      2.000000
 -0.030242  0.030242  0.000000      2.000000
  0.000000  0.000000  0.030242      2.000000
  0.030242  0.000000  0.030242      2.000000
 -0.030242  0.000000  0.030242      2.000000
  0.000000  0.030242  0.030242      2.000000
  0.030242  0.030242  0.030242      2.000000
 -0.030242  0.030242  0.030242      2.000000
  0.000000 -0.030242  0.030242      2.000000
  0.030242 -0.030242  0.030242      2.000000
 -0.030242 -0.030242  0.030242      2.000000
 
 TETIRR: Found     78 inequivalent tetrahedra from      162


--------------------------------------------------------------------------------------------------------




 Dimension of arrays:
   k-points           NKPTS =     14   k-points in BZ     NKDIM =     14   number of bands    NBANDS=    304
   number of dos      NEDOS =   1601   number of ions     NIONS =     56
   non local maximal  LDIM  =      6   non local SUM 2l+1 LMDIM =     18
   total plane-waves  NPLWV = 729000
   max r-space proj   IRMAX =      1   max aug-charges    IRDMAX=  23711
   dimension x,y,z NGX =    90 NGY =   90 NGZ =   90
   dimension x,y,z NGXF=   180 NGYF=  180 NGZF=  180
   support grid    NGXF=   180 NGYF=  180 NGZF=  180
   ions per type =               9  15  32
 NGX,Y,Z   is equivalent  to a cutoff of  13.57, 13.57, 13.57 a.u.
 NGXF,Y,Z  is equivalent  to a cutoff of  27.15, 27.15, 27.15 a.u.


 I would recommend the setting:
   dimension x,y,z NGX =    88 NGY =   88 NGZ =   88
 SYSTEM =  CdIn2S4                                 
 POSCAR =  Cd In2 S4                               

 Startparameter for this run:
   NWRITE =      2    write-flag & timer
   PREC   = accura    normal or accurate (medium, high low for compatibility)
   ISTART =      0    job   : 0-new  1-cont  2-samecut
   ICHARG =      2    charge: 1-file 2-atom 10-const
   ISPIN  =      1    spin polarized calculation?
   LNONCOLLINEAR =      F non collinear calculations
   LSORBIT =      F    spin-orbit coupling
   INIWAV =      1    electr: 0-lowe 1-rand  2-diag
   LASPH  =      F    aspherical Exc in radial PAW
   METAGGA=      F    non-selfconsistent MetaGGA calc.

 Electronic Relaxation 1
   ENCUT  =  600.0 eV  44.10 Ry    6.64 a.u.  22.01 22.01 22.01*2*pi/ulx,y,z
   ENINI  =  600.0     initial cutoff
   ENAUG  =  456.1 eV  augmentation charge cutoff
   NELM   =     60;   NELMIN=  2; NELMDL= -5     # of ELM steps 
   EDIFF  = 0.1E-03   stopping-criterion for ELM
   LREAL  =      F    real-space projection
   NLSPLINE    = F    spline interpolate recip. space projectors
   LCOMPAT=      F    compatible to vasp.4.4
   GGA_COMPAT  = T    GGA compatible to vasp.4.4-vasp.4.6
   LMAXPAW     = -100 max onsite density
   LMAXMIX     =    2 max onsite mixed and CHGCAR
   VOSKOWN=      0    Vosko Wilk Nusair interpolation
   ROPT   =    0.00000   0.00000   0.00000
 Ionic relaxation
   EDIFFG = 0.1E-02   stopping-criterion for IOM
   NSW    =      0    number of steps for IOM
   NBLOCK =      1;   KBLOCK =      1    inner block; outer block 
   IBRION =     -1    ionic relax: 0-MD 1-quasi-New 2-CG
   NFREE  =      1    steps in history (QN), initial steepest desc. (CG)
   ISIF   =      0    stress and relaxation
   IWAVPR =     10    prediction:  0-non 1-charg 2-wave 3-comb
   ISYM   =      2    0-nonsym 1-usesym 2-fastsym
   LCORR  =      T    Harris-Foulkes like correction to forces

   POTIM  = 0.5000    time-step for ionic-motion
   TEIN   =    0.0    initial temperature
   TEBEG  =    0.0;   TEEND  =   0.0 temperature during run
   SMASS  =  -3.00    Nose mass-parameter (am)
   estimated Nose-frequenzy (Omega)   =  0.10E-29 period in steps =****** mass=  -0.278E-26a.u.
   SCALEE = 1.0000    scale energy and forces
   NPACO  =    256;   APACO  = 16.0  distance and # of slots for P.C.
   PSTRESS=    0.0 pullay stress

  Mass of Ions in am
   POMASS = 112.41114.82 32.07
  Ionic Valenz
   ZVAL   =  12.00 13.00  6.00
  Atomic Wigner-Seitz radii
   RWIGS  =  -1.00 -1.00 -1.00
  virtual crystal weights 
   VCA    =   1.00  1.00  1.00
   NELECT =     497.0000    total number of electrons
   NUPDOWN=      -1.0000    fix difference up-down

 DOS related values:
   EMIN   =  -5.00;   EMAX   = 10.00  energy-range for DOS
   EFERMI =   0.00
   ISMEAR =    -4;   SIGMA  =   0.20  broadening in eV -4-tet -1-fermi 0-gaus

 Electronic relaxation 2 (details)
   IALGO  =     38    algorithm
   LDIAG  =      T    sub-space diagonalisation (order eigenvalues)
   LSUBROT=      F    optimize rotation matrix (better conditioning)
   TURBO    =      0    0=normal 1=particle mesh
   IRESTART =      0    0=no restart 2=restart with 2 vectors
   NREBOOT  =      0    no. of reboots
   NMIN     =      0    reboot dimension
   EREF     =   0.00    reference energy to select bands
   IMIX   =      4    mixing-type and parameters
     AMIX     =   0.40;   BMIX     =  1.00
     AMIX_MAG =   1.60;   BMIX_MAG =  1.00
     AMIN     =   0.10
     WC   =   100.;   INIMIX=   1;  MIXPRE=   1;  MAXMIX= -45

 Intra band minimization:
   WEIMIN = 0.0000     energy-eigenvalue tresh-hold
   EBREAK =  0.82E-07  absolut break condition
   DEPER  =   0.30     relativ break condition  

   TIME   =   0.40     timestep for ELM

  volume/ion in A,a.u.               =      23.91       161.37
  Fermi-wavevector in a.u.,A,eV,Ry     =   1.176484  2.223232 18.832016  1.384114
  Thomas-Fermi vector in A             =   2.312847
 
 Write flags
   LWAVE  =      T    write WAVECAR
   LCHARG =      T    write CHGCAR
   LVTOT  =      F    write LOCPOT, total local potential
   LVHAR  =      F    write LOCPOT, Hartree potential only
   LELF   =      F    write electronic localiz. function (ELF)
   LORBIT =     11    0 simple, 1 ext, 2 COOP (PROOUT)


 Dipole corrections
   LMONO  =      F    monopole corrections only (constant potential shift)
   LDIPOL =      F    correct potential (dipole corrections)
   IDIPOL =      0    1-x, 2-y, 3-z, 4-all directions 
   EPSILON=  1.0000000 bulk dielectric constant

 Exchange correlation treatment:
   GGA     =    --    GGA type
   LEXCH   =     8    internal setting for exchange type
   VOSKOWN=      0    Vosko Wilk Nusair interpolation
   LHFCALC =     F    Hartree Fock is set to
   LHFONE  =     F    Hartree Fock one center treatment
   AEXX    =    0.0000 exact exchange contribution

 Linear response parameters
   LEPSILON=     F    determine dielectric tensor
   LRPA    =     F    only Hartree local field effects (RPA)
   LNABLA  =     F    use nabla operator in PAW spheres
   LVEL    =     F    velocity operator in full k-point grid
   LINTERFAST=   F  fast interpolation
   KINTER  =     0    interpolate to denser k-point grid
   CSHIFT  =0.1000    complex shift for real part using Kramers Kronig
   OMEGAMAX=  -1.0    maximum frequency
   DEG_THRESHOLD= 0.2000000E-02 threshold for treating states as degnerate
   RTIME   =    0.100 relaxation time in fs

 Orbital magnetization related:
   ORBITALMAG=     F  switch on orbital magnetization
   LCHIMAG   =     F  perturbation theory with respect to B field
   DQ        =  0.001000  dq finite difference perturbation B field



--------------------------------------------------------------------------------------------------------


 Static calculation
 charge density and potential will be updated during run
 non-spin polarized calculation
 Variant of blocked Davidson
 Davidson routine will perform the subspace rotation
 perform sub-space diagonalisation
    after iterative eigenvector-optimisation
 modified Broyden-mixing scheme, WC =      100.0
 initial mixing is a Kerker type mixing with AMIX =  0.4000 and BMIX =      1.0000
 Hartree-type preconditioning will be used
 using additional bands           55
 reciprocal scheme for non local part
 use partial core corrections
 calculate Harris-corrections to forces 
   (improved forces if not selfconsistent)
 use gradient corrections 
 use of overlap-Matrix (Vanderbilt PP)
 Fermi weights with tetrahedron method witout Bloechl corrections


--------------------------------------------------------------------------------------------------------


  energy-cutoff  :      600.00
  volume of cell :     1339.13
      direct lattice vectors                 reciprocal lattice vectors
    11.022353692  0.000000000  0.000000000     0.090724724  0.000000000  0.000000000
     0.000000000 11.022353692  0.000000000     0.000000000  0.090724724  0.000000000
     0.000000000  0.000000000 11.022353692     0.000000000  0.000000000  0.090724724

  length of vectors
    11.022353692 11.022353692 11.022353692     0.090724724  0.090724724  0.090724724


 
 k-points in units of 2pi/SCALE and weight: Automatic mesh                          
   0.00000000  0.00000000  0.00000000       0.037
   0.03024157  0.00000000  0.00000000       0.074
   0.00000000  0.03024157  0.00000000       0.074
   0.03024157  0.03024157  0.00000000       0.074
  -0.03024157  0.03024157  0.00000000       0.074
   0.00000000  0.00000000  0.03024157       0.074
   0.03024157  0.00000000  0.03024157       0.074
  -0.03024157  0.00000000  0.03024157       0.074
   0.00000000  0.03024157  0.03024157       0.074
   0.03024157  0.03024157  0.03024157       0.074
  -0.03024157  0.03024157  0.03024157       0.074
   0.00000000 -0.03024157  0.03024157       0.074
   0.03024157 -0.03024157  0.03024157       0.074
  -0.03024157 -0.03024157  0.03024157       0.074
 
 k-points in reciprocal lattice and weights: Automatic mesh                          
   0.00000000  0.00000000  0.00000000       0.037
   0.33333333  0.00000000  0.00000000       0.074
   0.00000000  0.33333333  0.00000000       0.074
   0.33333333  0.33333333  0.00000000       0.074
  -0.33333333  0.33333333  0.00000000       0.074
   0.00000000  0.00000000  0.33333333       0.074
   0.33333333  0.00000000  0.33333333       0.074
  -0.33333333  0.00000000  0.33333333       0.074
   0.00000000  0.33333333  0.33333333       0.074
   0.33333333  0.33333333  0.33333333       0.074
  -0.33333333  0.33333333  0.33333333       0.074
   0.00000000 -0.33333333  0.33333333       0.074
   0.33333333 -0.33333333  0.33333333       0.074
  -0.33333333 -0.33333333  0.33333333       0.074
 
 position of ions in fractional coordinates (direct lattice) 
   0.99938350  0.99939096  0.99938182
   0.00149086  0.50126848  0.50125157
   0.50125954  0.50126398  0.00149164
   0.50126448  0.00150037  0.50126688
   0.74797183  0.24874035  0.74797289
   0.25066706  0.25067441  0.25066341
   0.24871526  0.74800652  0.74798817
   0.74798021  0.74799896  0.24871545
   0.62509735  0.62509176  0.62510353
   0.37526289  0.87495868  0.12472233
   0.87495870  0.12472398  0.37526399
   0.12472809  0.37526390  0.87495845
   0.87496052  0.37526038  0.12473143
   0.37526426  0.12472557  0.87496026
   0.12472354  0.87496250  0.37526259
   0.62516394  0.12487165  0.12486395
   0.37670070  0.37671054  0.62597130
   0.87296693  0.62428328  0.87296716
   0.87293702  0.87294188  0.62435010
   0.37670807  0.62597545  0.37670973
   0.12486920  0.62516458  0.12486845
   0.62596955  0.37670943  0.37670339
   0.62434788  0.87293846  0.87294143
   0.12486363  0.12486993  0.62516441
   0.38432795  0.38435734  0.38433385
   0.61512689  0.11479055  0.88551332
   0.11476493  0.88553323  0.61512697
   0.88553149  0.61512792  0.11478629
   0.13554492  0.63553587  0.36437186
   0.86568745  0.86564155  0.86568918
   0.63553545  0.36436885  0.13554158
   0.36437122  0.13554581  0.63553177
   0.63553273  0.13554533  0.36437390
   0.13554285  0.36437081  0.63553204
   0.36437514  0.63553489  0.13553931
   0.11478535  0.61512832  0.88551789
   0.61512748  0.88554161  0.11477431
   0.88551448  0.11479201  0.61512564
   0.38312403  0.88393369  0.88393321
   0.61430329  0.61430518  0.38033392
   0.11542725  0.38443057  0.11543029
   0.13453418  0.13453716  0.86603988
   0.86739146  0.36566228  0.36566348
   0.63546767  0.86997080  0.63546982
   0.63547206  0.63544362  0.86997834
   0.13453432  0.86604084  0.13453421
   0.11542686  0.11543048  0.38442839
   0.61430083  0.38033418  0.61430141
   0.88394755  0.38311378  0.88394491
   0.38033954  0.61429265  0.61429883
   0.36566558  0.86738863  0.36566191
   0.86604262  0.13453199  0.13453557
   0.86997504  0.63545485  0.63547155
   0.38442584  0.11543013  0.11542641
   0.88393290  0.88392951  0.38312662
   0.36566565  0.36565952  0.86738904
 
 position of ions in cartesian coordinates  (Angst):
  11.01555846 11.01564063 11.01553991
   0.01643276  5.52515846  5.52497207
   5.52505991  5.52510886  0.01644137
   5.52511435  0.01653762  5.52514080
   8.24441003  2.74170412  8.24442180
   2.76294100  2.76302202  2.76290076
   2.74142752  8.24479243  8.24459016
   8.24450247  8.24470911  2.74142962
   6.89004412  6.88998250  6.89011215
   4.13628033  9.64410405  1.37473362
   9.64410422  1.37475182  4.13629238
   1.37479712  4.13629139  9.64410146
   9.64412430  4.13625267  1.37483394
   4.13629545  1.37476931  9.64412149
   1.37474692  9.64414609  4.13627698
   6.89077801  1.37637951  1.37629466
   4.15212838  4.15223678  6.89967706
   9.62215028  6.88107114  9.62215284
   9.62182059  9.62187415  6.88180765
   4.15220963  6.89972286  4.15222789
   1.37635251  6.89078517  1.37634427
   6.89965782  4.15222455  4.15215802
   6.88178317  9.62183647  9.62186917
   1.37629109  1.37636059  6.89078320
   4.23619865  4.23652257  4.23626364
   6.78014609  1.26526207  9.76044098
   1.26497961  9.76066048  6.78014706
   9.76064132  6.78015751  1.26521505
   1.49402407  7.00510115  4.01623552
   9.54191330  9.54140735  9.54193235
   7.00509649  4.01620238  1.49398718
   4.01622849  1.49403387  7.00505600
   7.00506651  1.49402860  4.01625796
   1.49400128  4.01622399  7.00505888
   4.01627163  7.00509038  1.49396226
   1.26520477  6.78016192  9.76049140
   6.78015261  9.76075287  1.26508307
   9.76045374  1.26527812  6.78013236
   4.22292859  9.74302977  9.74302443
   6.77106809  6.77108897  4.19217494
   1.27228001  4.23732972  1.27231349
   1.48288330  1.48291615  9.54579785
   9.56069541  4.03045903  4.03047224
   7.00434939  9.58912587  7.00437310
   7.00439782  7.00408431  9.58920892
   1.48288484  9.54580850  1.48288362
   1.27227568  1.27231563  4.23730565
   6.77104098  4.19217786  6.77104746
   9.74318252  4.22281555  9.74315339
   4.19223697  6.77095090  6.77101898
   4.03049535  9.56066422  4.03045487
   9.54582811  1.48285922  1.48289867
   9.58917260  7.00420815  7.00439214
   4.23727754  1.27231172  1.27227071
   9.74302106  9.74298372  4.22295709
   4.03049609  4.03042853  9.56066884
 


--------------------------------------------------------------------------------------------------------


 k-point  1 :   0.0000 0.0000 0.0000  plane waves:   44473
 k-point  2 :   0.3333 0.0000 0.0000  plane waves:   44660
 k-point  3 :   0.0000 0.3333 0.0000  plane waves:   44660
 k-point  4 :   0.3333 0.3333 0.0000  plane waves:   44717
 k-point  5 :  -0.3333 0.3333 0.0000  plane waves:   44717
 k-point  6 :   0.0000 0.0000 0.3333  plane waves:   44660
 k-point  7 :   0.3333 0.0000 0.3333  plane waves:   44717
 k-point  8 :  -0.3333 0.0000 0.3333  plane waves:   44717
 k-point  9 :   0.0000 0.3333 0.3333  plane waves:   44717
 k-point 10 :   0.3333 0.3333 0.3333  plane waves:   44681
 k-point 11 :  -0.3333 0.3333 0.3333  plane waves:   44681
 k-point 12 :   0.0000-0.3333 0.3333  plane waves:   44717
 k-point 13 :   0.3333-0.3333 0.3333  plane waves:   44681
 k-point 14 :  -0.3333-0.3333 0.3333  plane waves:   44681

 maximum and minimum number of plane-waves per node :     44717    44473

 maximum number of plane-waves:     44717
 maximum index in each direction: 
   IXMAX=   22   IYMAX=   22   IZMAX=   22
   IXMIN=  -22   IYMIN=  -22   IZMIN=  -22

 NGX is ok and might be reduce to  90
 NGY is ok and might be reduce to  90
 NGZ is ok and might be reduce to  90

 serial   3D FFT for wavefunctions
 parallel 3D FFT for charge:
    minimum data exchange during FFTs selected (reduces bandwidth)


 total amount of memory used by VASP on root node   604991. kBytes
========================================================================

   base      :      30000. kBytes
   nonl-proj :     310535. kBytes
   fftplans  :      15950. kBytes
   grid      :      54380. kBytes
   one-center:        870. kBytes
   wavefun   :     193256. kBytes
 
     INWAV:  cpu time    0.00: real time    0.00
 Broyden mixing: mesh for mixing (old mesh)
   NGX = 45   NGY = 45   NGZ = 45
  (NGX  =180   NGY  =180   NGZ  =180)
  gives a total of  91125 points

 initial charge density was supplied:
 charge density of overlapping atoms calculated
 number of electron     495.0000000 magnetization 
 keeping initial charge density in first step


--------------------------------------------------------------------------------------------------------


 Maximum index for augmentation-charges         2046 (set IRDMAX)


--------------------------------------------------------------------------------------------------------


 First call to EWALD:  gamma=   0.161
 Maximum number of real-space cells 3x 3x 3
 Maximum number of reciprocal cells 3x 3x 3

 FEWALD executed in parallel
    FEWALD:  cpu time    0.00: real time    0.00


----------------------------------------- Iteration    1(   1)  ---------------------------------------


    POTLOK:  cpu time    0.68: real time    0.70
    SETDIJ:  cpu time    0.06: real time    0.06
     EDDAV:  cpu time  381.02: real time  386.71
 BZINTS: Fermi energy: 29.573458;497.000000 electrons
         Band energy:4319.989166;  BLOECHL correction:  0.000000
       DOS:  cpu time    2.87: real time    2.88
    --------------------------------------------
      LOOP:  cpu time  384.62: real time  390.35

 eigenvalue-minimisations  :  8512
 total energy-change (2. order) : 0.6252159E+04  (-0.2285556E+05)
 number of electron     495.0000000 magnetization 
 augmentation part      495.0000000 magnetization 

 Free energy of the ion-electron system (eV)
  ---------------------------------------------------
  alpha Z        PSCENC =      1306.21815755
  Ewald energy   TEWEN  =    -31795.46339521
  -Hartree energ DENC   =    -13340.17226928
  -exchange      EXHF   =         0.00000000
  -V(xc)+E(xc)   XCENC  =      1066.51839452
  PAW double counting   =     38443.77006490   -37898.04291699
  entropy T*S    EENTRO =         0.00000000
  eigenvalues    EBANDS =      4319.98916643
  atomic energy  EATOM  =     44149.34201756
  ---------------------------------------------------
  free energy    TOTEN  =      6252.15921948 eV

  energy without entropy =     6252.15921948  energy(sigma->0) =     6252.15921948


--------------------------------------------------------------------------------------------------------




----------------------------------------- Iteration    1(   2)  ---------------------------------------


     EDDAV:  cpu time  383.02: real time  388.76
 BZINTS: Fermi energy: 11.282269;497.000000 electrons
         Band energy:-894.644097;  BLOECHL correction:  0.000000
       DOS:  cpu time    0.24: real time    0.25
    --------------------------------------------
      LOOP:  cpu time  386.24: real time  391.99

 eigenvalue-minimisations  :  8512
 total energy-change (2. order) :-0.5214633E+04  (-0.5050645E+04)
 number of electron     495.0000000 magnetization 
 augmentation part      495.0000000 magnetization 

 Free energy of the ion-electron system (eV)
  ---------------------------------------------------
  alpha Z        PSCENC =      1306.21815755
  Ewald energy   TEWEN  =    -31795.46339521
  -Hartree energ DENC   =    -13340.17226928
  -exchange      EXHF   =         0.00000000
  -V(xc)+E(xc)   XCENC  =      1066.51839452
  PAW double counting   =     38443.77006490   -37898.04291699
  entropy T*S    EENTRO =         0.00000000
  eigenvalues    EBANDS =      -894.64409686
  atomic energy  EATOM  =     44149.34201756
  ---------------------------------------------------
  free energy    TOTEN  =      1037.52595619 eV

  energy without entropy =     1037.52595619  energy(sigma->0) =     1037.52595619


--------------------------------------------------------------------------------------------------------




----------------------------------------- Iteration    1(   3)  ---------------------------------------


     EDDAV:  cpu time  417.01: real time  423.15
 BZINTS: Fermi energy:  6.032455;497.000000 electrons
         Band energy:***********;  BLOECHL correction:  0.000000
       DOS:  cpu time    0.05: real time    0.05
    --------------------------------------------
      LOOP:  cpu time  417.29: real time  423.44

 eigenvalue-minimisations  :  9488
 total energy-change (2. order) :-0.1121432E+04  (-0.1057363E+04)
 number of electron     495.0000000 magnetization 
 augmentation part      495.0000000 magnetization 

 Free energy of the ion-electron system (eV)
  ---------------------------------------------------
  alpha Z        PSCENC =      1306.21815755
  Ewald energy   TEWEN  =    -31795.46339521
  -Hartree energ DENC   =    -13340.17226928
  -exchange      EXHF   =         0.00000000
  -V(xc)+E(xc)   XCENC  =      1066.51839452
  PAW double counting   =     38443.77006490   -37898.04291699
  entropy T*S    EENTRO =         0.00000000
  eigenvalues    EBANDS =     -2016.07586979
  atomic energy  EATOM  =     44149.34201756
  ---------------------------------------------------
  free energy    TOTEN  =       -83.90581673 eV

  energy without entropy =      -83.90581673  energy(sigma->0) =      -83.90581673


--------------------------------------------------------------------------------------------------------




----------------------------------------- Iteration    1(   4)  ---------------------------------------


     EDDAV:  cpu time  462.46: real time  469.20
 BZINTS: Fermi energy:  5.200429;497.000000 electrons
         Band energy:***********;  BLOECHL correction:  0.000000
       DOS:  cpu time    0.04: real time    0.05
    --------------------------------------------
      LOOP:  cpu time  462.54: real time  469.28

 eigenvalue-minimisations  : 10880
 total energy-change (2. order) :-0.1272592E+03  (-0.1249259E+03)
 number of electron     495.0000000 magnetization 
 augmentation part      495.0000000 magnetization 

 Free energy of the ion-electron system (eV)
  ---------------------------------------------------
  alpha Z        PSCENC =      1306.21815755
  Ewald energy   TEWEN  =    -31795.46339521
  -Hartree energ DENC   =    -13340.17226928
  -exchange      EXHF   =         0.00000000
  -V(xc)+E(xc)   XCENC  =      1066.51839452
  PAW double counting   =     38443.77006490   -37898.04291699
  entropy T*S    EENTRO =         0.00000000
  eigenvalues    EBANDS =     -2143.33510293
  atomic energy  EATOM  =     44149.34201756
  ---------------------------------------------------
  free energy    TOTEN  =      -211.16504988 eV

  energy without entropy =     -211.16504988  energy(sigma->0) =     -211.16504988


--------------------------------------------------------------------------------------------------------




----------------------------------------- Iteration    1(   5)  ---------------------------------------


     EDDAV:  cpu time  444.86: real time  451.37
 BZINTS: Fermi energy:  5.109626;497.000000 electrons
         Band energy:***********;  BLOECHL correction:  0.000000
       DOS:  cpu time    0.05: real time    0.05
    CHARGE:  cpu time   13.62: real time   13.66
    MIXING:  cpu time    0.02: real time    0.02
    --------------------------------------------
      LOOP:  cpu time  458.58: real time  465.14

 eigenvalue-minimisations  : 10368
 total energy-change (2. order) :-0.4806359E+01  (-0.4767319E+01)
 number of electron     497.0000006 magnetization 
 augmentation part      130.4480613 magnetization 

 Broyden mixing:
  rms(total) = 0.40604E+01    rms(broyden)= 0.40600E+01
  rms(prec ) = 0.44309E+01
  weight for this iteration     100.00

 Free energy of the ion-electron system (eV)
  ---------------------------------------------------
  alpha Z        PSCENC =      1306.21815755
  Ewald energy   TEWEN  =    -31795.46339521
  -Hartree energ DENC   =    -13340.17226928
  -exchange      EXHF   =         0.00000000
  -V(xc)+E(xc)   XCENC  =      1066.51839452
  PAW double counting   =     38443.77006490   -37898.04291699
  entropy T*S    EENTRO =         0.00000000
  eigenvalues    EBANDS =     -2148.14146163
  atomic energy  EATOM  =     44149.34201756
  ---------------------------------------------------
  free energy    TOTEN  =      -215.97140858 eV

  energy without entropy =     -215.97140858  energy(sigma->0) =     -215.97140858


--------------------------------------------------------------------------------------------------------




----------------------------------------- Iteration    1(   6)  ---------------------------------------


    POTLOK:  cpu time    0.68: real time    0.70
    SETDIJ:  cpu time    0.06: real time    0.06
     EDDAV:  cpu time  476.24: real time  483.05
 BZINTS: Fermi energy:  5.244785;497.000000 electrons
         Band energy:***********;  BLOECHL correction:  0.000000
       DOS:  cpu time    0.06: real time    0.06
    CHARGE:  cpu time   13.73: real time   13.77
    MIXING:  cpu time    0.02: real time    0.02
    --------------------------------------------
      LOOP:  cpu time  490.79: real time  497.68

 eigenvalue-minimisations  : 11296
 total energy-change (2. order) : 0.1507079E+02  (-0.2693089E+01)
 number of electron     497.0000006 magnetization 
 augmentation part      131.7876215 magnetization 

 Broyden mixing:
  rms(total) = 0.26650E+01    rms(broyden)= 0.26650E+01
  rms(prec ) = 0.27432E+01
  weight for this iteration     100.00

 eigenvalues of (default mixing * dielectric matrix)
  average eigenvalue GAMMA=   1.7834
  1.7834

 Free energy of the ion-electron system (eV)
  ---------------------------------------------------
  alpha Z        PSCENC =      1306.21815755
  Ewald energy   TEWEN  =    -31795.46339521
  -Hartree energ DENC   =    -13278.30964714
  -exchange      EXHF   =         0.00000000
  -V(xc)+E(xc)   XCENC  =      1077.62029375
  PAW double counting   =     46587.89612211   -46014.56115373
  entropy T*S    EENTRO =         0.00000000
  eigenvalues    EBANDS =     -2233.64301437
  atomic energy  EATOM  =     44149.34201756
  ---------------------------------------------------
  free energy    TOTEN  =      -200.90061948 eV

  energy without entropy =     -200.90061948  energy(sigma->0) =     -200.90061948


--------------------------------------------------------------------------------------------------------




----------------------------------------- Iteration    1(   7)  ---------------------------------------


    POTLOK:  cpu time    0.66: real time    0.68
    SETDIJ:  cpu time    0.06: real time    0.06
     EDDAV:  cpu time  488.31: real time  495.21
 BZINTS: Fermi energy:  5.347607;497.000000 electrons
         Band energy:***********;  BLOECHL correction:  0.000000
       DOS:  cpu time    0.05: real time    0.05
    CHARGE:  cpu time   13.95: real time   13.99
    MIXING:  cpu time    0.02: real time    0.02
    --------------------------------------------
      LOOP:  cpu time  503.06: real time  510.19

 eigenvalue-minimisations  : 11488
 total energy-change (2. order) : 0.6906475E-01  (-0.2089146E+01)
 number of electron     497.0000006 magnetization 
 augmentation part      132.7766617 magnetization 

 Broyden mixing:
  rms(total) = 0.10400E+01    rms(broyden)= 0.10400E+01
  rms(prec ) = 0.10776E+01
  weight for this iteration     100.00

 eigenvalues of (default mixing * dielectric matrix)
  average eigenvalue GAMMA=   1.7249
  1.2550  2.1949

 Free energy of the ion-electron system (eV)
  ---------------------------------------------------
  alpha Z        PSCENC =      1306.21815755
  Ewald energy   TEWEN  =    -31795.46339521
  -Hartree energ DENC   =    -13281.33803821
  -exchange      EXHF   =         0.00000000
  -V(xc)+E(xc)   XCENC  =      1082.57671696
  PAW double counting   =     55992.53758805   -55412.92635743
  entropy T*S    EENTRO =         0.00000000
  eigenvalues    EBANDS =     -2241.77824399
  atomic energy  EATOM  =     44149.34201756
  ---------------------------------------------------
  free energy    TOTEN  =      -200.83155473 eV

  energy without entropy =     -200.83155473  energy(sigma->0) =     -200.83155473


--------------------------------------------------------------------------------------------------------




----------------------------------------- Iteration    1(   8)  ---------------------------------------


    POTLOK:  cpu time    0.68: real time    0.70
    SETDIJ:  cpu time    0.06: real time    0.06
     EDDAV:  cpu time  486.67: real time  493.51
 BZINTS: Fermi energy:  5.331076;497.000000 electrons
         Band energy:***********;  BLOECHL correction:  0.000000
       DOS:  cpu time    0.06: real time    0.05
    CHARGE:  cpu time   13.74: real time   13.79
    MIXING:  cpu time    0.02: real time    0.02
    --------------------------------------------
      LOOP:  cpu time  501.23: real time  508.14

 eigenvalue-minimisations  : 11440
 total energy-change (2. order) : 0.1317164E+00  (-0.3275332E+00)
 number of electron     497.0000006 magnetization 
 augmentation part      132.2459238 magnetization 

 Broyden mixing:
  rms(total) = 0.39532E+00    rms(broyden)= 0.39532E+00
  rms(prec ) = 0.40681E+00
  weight for this iteration     100.00

 eigenvalues of (default mixing * dielectric matrix)
  average eigenvalue GAMMA=   1.4575
  2.2568  1.0578  1.0578

 Free energy of the ion-electron system (eV)
  ---------------------------------------------------
  alpha Z        PSCENC =      1306.21815755
  Ewald energy   TEWEN  =    -31795.46339521
  -Hartree energ DENC   =    -13302.69083590
  -exchange      EXHF   =         0.00000000
  -V(xc)+E(xc)   XCENC  =      1082.93182825
  PAW double counting   =     59924.98183202   -59352.65802671
  entropy T*S    EENTRO =         0.00000000
  eigenvalues    EBANDS =     -2213.36141593
  atomic energy  EATOM  =     44149.34201756
  ---------------------------------------------------
  free energy    TOTEN  =      -200.69983837 eV

  energy without entropy =     -200.69983837  energy(sigma->0) =     -200.69983837


--------------------------------------------------------------------------------------------------------




----------------------------------------- Iteration    1(   9)  ---------------------------------------


    POTLOK:  cpu time    0.68: real time    0.70
    SETDIJ:  cpu time    0.06: real time    0.06
     EDDAV:  cpu time  491.87: real time  498.80
 BZINTS: Fermi energy:  5.337763;497.000000 electrons
         Band energy:***********;  BLOECHL correction:  0.000000
       DOS:  cpu time    0.06: real time    0.06
    CHARGE:  cpu time   13.71: real time   13.75
    MIXING:  cpu time    0.02: real time    0.02
    --------------------------------------------
      LOOP:  cpu time  506.40: real time  513.40

 eigenvalue-minimisations  : 11632
 total energy-change (2. order) : 0.1781593E-01  (-0.2366000E-01)
 number of electron     497.0000006 magnetization 
 augmentation part      132.3515891 magnetization 

 Broyden mixing:
  rms(total) = 0.13819E+00    rms(broyden)= 0.13819E+00
  rms(prec ) = 0.14261E+00
  weight for this iteration     100.00

 eigenvalues of (default mixing * dielectric matrix)
  average eigenvalue GAMMA=   1.4648
  1.8661  1.8661  1.0634  1.0634

 Free energy of the ion-electron system (eV)
  ---------------------------------------------------
  alpha Z        PSCENC =      1306.21815755
  Ewald energy   TEWEN  =    -31795.46339521
  -Hartree energ DENC   =    -13292.15449181
  -exchange      EXHF   =         0.00000000
  -V(xc)+E(xc)   XCENC  =      1083.12835315
  PAW double counting   =     60609.26109653   -60034.39393644
  entropy T*S    EENTRO =         0.00000000
  eigenvalues    EBANDS =     -2226.61982377
  atomic energy  EATOM  =     44149.34201756
  ---------------------------------------------------
  free energy    TOTEN  =      -200.68202244 eV

  energy without entropy =     -200.68202244  energy(sigma->0) =     -200.68202244


--------------------------------------------------------------------------------------------------------




----------------------------------------- Iteration    1(  10)  ---------------------------------------


    POTLOK:  cpu time    0.68: real time    0.69
    SETDIJ:  cpu time    0.06: real time    0.06
     EDDAV:  cpu time  444.38: real time  450.76
 BZINTS: Fermi energy:  5.339577;497.000000 electrons
         Band energy:***********;  BLOECHL correction:  0.000000
       DOS:  cpu time    0.06: real time    0.06
    CHARGE:  cpu time   13.78: real time   13.84
    MIXING:  cpu time    0.02: real time    0.02
    --------------------------------------------
      LOOP:  cpu time  458.98: real time  465.44

 eigenvalue-minimisations  : 10176
 total energy-change (2. order) :-0.5326879E-02  (-0.2823171E-02)
 number of electron     497.0000006 magnetization 
 augmentation part      132.3714010 magnetization 

 Broyden mixing:
  rms(total) = 0.83531E-01    rms(broyden)= 0.83531E-01
  rms(prec ) = 0.85813E-01
  weight for this iteration     100.00

 eigenvalues of (default mixing * dielectric matrix)
  average eigenvalue GAMMA=   1.6705
  2.5750  2.5750  1.1756  1.1756  0.8512

 Free energy of the ion-electron system (eV)
  ---------------------------------------------------
  alpha Z        PSCENC =      1306.21815755
  Ewald energy   TEWEN  =    -31795.46339521
  -Hartree energ DENC   =    -13290.64032753
  -exchange      EXHF   =         0.00000000
  -V(xc)+E(xc)   XCENC  =      1083.15995010
  PAW double counting   =     60513.62914929   -59938.42148912
  entropy T*S    EENTRO =         0.00000000
  eigenvalues    EBANDS =     -2228.51141197
  atomic energy  EATOM  =     44149.34201756
  ---------------------------------------------------
  free energy    TOTEN  =      -200.68734932 eV

  energy without entropy =     -200.68734932  energy(sigma->0) =     -200.68734932


--------------------------------------------------------------------------------------------------------




----------------------------------------- Iteration    1(  11)  ---------------------------------------


    POTLOK:  cpu time    0.67: real time    0.68
    SETDIJ:  cpu time    0.06: real time    0.06
     EDDAV:  cpu time  490.55: real time  497.47
 BZINTS: Fermi energy:  5.343095;497.000000 electrons
         Band energy:***********;  BLOECHL correction:  0.000000
       DOS:  cpu time    0.06: real time    0.06
    CHARGE:  cpu time   13.87: real time   13.92
    MIXING:  cpu time    0.02: real time    0.02
    --------------------------------------------
      LOOP:  cpu time  505.22: real time  512.22

 eigenvalue-minimisations  : 11584
 total energy-change (2. order) :-0.4513352E-02  (-0.1154048E-02)
 number of electron     497.0000006 magnetization 
 augmentation part      132.3417524 magnetization 

 Broyden mixing:
  rms(total) = 0.25541E-01    rms(broyden)= 0.25541E-01
  rms(prec ) = 0.30689E-01
  weight for this iteration     100.00

 eigenvalues of (default mixing * dielectric matrix)
  average eigenvalue GAMMA=   1.5133
  2.5223  2.5223  1.1833  1.1833  0.8342  0.8342

 Free energy of the ion-electron system (eV)
  ---------------------------------------------------
  alpha Z        PSCENC =      1306.21815755
  Ewald energy   TEWEN  =    -31795.46339521
  -Hartree energ DENC   =    -13293.11689029
  -exchange      EXHF   =         0.00000000
  -V(xc)+E(xc)   XCENC  =      1083.31544681
  PAW double counting   =     60442.74613692   -59867.61416388
  entropy T*S    EENTRO =         0.00000000
  eigenvalues    EBANDS =     -2226.11917213
  atomic energy  EATOM  =     44149.34201756
  ---------------------------------------------------
  free energy    TOTEN  =      -200.69186267 eV

  energy without entropy =     -200.69186267  energy(sigma->0) =     -200.69186267


--------------------------------------------------------------------------------------------------------




----------------------------------------- Iteration    1(  12)  ---------------------------------------


    POTLOK:  cpu time    0.69: real time    0.71
    SETDIJ:  cpu time    0.06: real time    0.06
     EDDAV:  cpu time  478.42: real time  485.24
 BZINTS: Fermi energy:  5.344964;497.000000 electrons
         Band energy:***********;  BLOECHL correction:  0.000000
       DOS:  cpu time    0.06: real time    0.06
    CHARGE:  cpu time   13.76: real time   13.80
    MIXING:  cpu time    0.03: real time    0.03
    --------------------------------------------
      LOOP:  cpu time  493.02: real time  499.90

 eigenvalue-minimisations  : 11216
 total energy-change (2. order) : 0.1316868E-02  (-0.3230121E-03)
 number of electron     497.0000006 magnetization 
 augmentation part      132.3555861 magnetization 

 Broyden mixing:
  rms(total) = 0.11060E-01    rms(broyden)= 0.11060E-01
  rms(prec ) = 0.12509E-01
  weight for this iteration     100.00

 eigenvalues of (default mixing * dielectric matrix)
  average eigenvalue GAMMA=   1.5784
  2.3819  2.3819  1.6693  1.6693  0.8483  1.0490  1.0490

 Free energy of the ion-electron system (eV)
  ---------------------------------------------------
  alpha Z        PSCENC =      1306.21815755
  Ewald energy   TEWEN  =    -31795.46339521
  -Hartree energ DENC   =    -13293.03343842
  -exchange      EXHF   =         0.00000000
  -V(xc)+E(xc)   XCENC  =      1083.36198175
  PAW double counting   =     60394.80410391   -59819.40693760
  entropy T*S    EENTRO =         0.00000000
  eigenvalues    EBANDS =     -2226.51303534
  atomic energy  EATOM  =     44149.34201756
  ---------------------------------------------------
  free energy    TOTEN  =      -200.69054580 eV

  energy without entropy =     -200.69054580  energy(sigma->0) =     -200.69054580


--------------------------------------------------------------------------------------------------------




----------------------------------------- Iteration    1(  13)  ---------------------------------------


    POTLOK:  cpu time    0.67: real time    0.69
    SETDIJ:  cpu time    0.06: real time    0.06
     EDDAV:  cpu time  412.04: real time  417.94
 BZINTS: Fermi energy:  5.346048;497.000000 electrons
         Band energy:***********;  BLOECHL correction:  0.000000
       DOS:  cpu time    0.06: real time    0.06
    CHARGE:  cpu time   13.88: real time   13.93
    MIXING:  cpu time    0.02: real time    0.03
    --------------------------------------------
      LOOP:  cpu time  426.72: real time  432.70

 eigenvalue-minimisations  :  9232
 total energy-change (2. order) :-0.6397726E-04  (-0.1089020E-03)
 number of electron     497.0000006 magnetization 
 augmentation part      132.3630529 magnetization 

 Broyden mixing:
  rms(total) = 0.38797E-02    rms(broyden)= 0.38797E-02
  rms(prec ) = 0.42212E-02
  weight for this iteration     100.00

 eigenvalues of (default mixing * dielectric matrix)
  average eigenvalue GAMMA=   1.5626
  2.5386  2.5386  1.6829  1.6829  1.0544  1.0544  0.8871  1.0616

 Free energy of the ion-electron system (eV)
  ---------------------------------------------------
  alpha Z        PSCENC =      1306.21815755
  Ewald energy   TEWEN  =    -31795.46339521
  -Hartree energ DENC   =    -13293.26233083
  -exchange      EXHF   =         0.00000000
  -V(xc)+E(xc)   XCENC  =      1083.39125557
  PAW double counting   =     60402.98800377   -59827.54525130
  entropy T*S    EENTRO =         0.00000000
  eigenvalues    EBANDS =     -2226.35906691
  atomic energy  EATOM  =     44149.34201756
  ---------------------------------------------------
  free energy    TOTEN  =      -200.69060978 eV

  energy without entropy =     -200.69060978  energy(sigma->0) =     -200.69060978


--------------------------------------------------------------------------------------------------------




----------------------------------------- Iteration    1(  14)  ---------------------------------------


    POTLOK:  cpu time    0.68: real time    0.70
    SETDIJ:  cpu time    0.06: real time    0.06
     EDDAV:  cpu time  289.20: real time  293.64
 BZINTS: Fermi energy:  5.346512;497.000000 electrons
         Band energy:***********;  BLOECHL correction:  0.000000
       DOS:  cpu time    0.06: real time    0.05
    --------------------------------------------
      LOOP:  cpu time  290.00: real time  294.46

 eigenvalue-minimisations  :  5680
 total energy-change (2. order) :-0.3841570E-04  (-0.9840969E-05)
 number of electron     497.0000006 magnetization 
 augmentation part      132.3630529 magnetization 

 Free energy of the ion-electron system (eV)
  ---------------------------------------------------
  alpha Z        PSCENC =      1306.21815755
  Ewald energy   TEWEN  =    -31795.46339521
  -Hartree energ DENC   =    -13293.40261416
  -exchange      EXHF   =         0.00000000
  -V(xc)+E(xc)   XCENC  =      1083.40326386
  PAW double counting   =     60390.24941859   -59814.78516108
  entropy T*S    EENTRO =         0.00000000
  eigenvalues    EBANDS =     -2226.25233530
  atomic energy  EATOM  =     44149.34201756
  ---------------------------------------------------
  free energy    TOTEN  =      -200.69064820 eV

  energy without entropy =     -200.69064820  energy(sigma->0) =     -200.69064820


--------------------------------------------------------------------------------------------------------




 average (electrostatic) potential at core
  the test charge radii are     1.0698  1.0774  0.9698
  (the norm of the test charge is              1.0000)
       1 -37.4718       2 -37.4237       3 -37.4237       4 -37.4239       5 -37.4214
       6 -37.4795       7 -37.4214       8 -37.4213       9 -36.9034      10 -97.0674
      11 -97.0685      12 -97.0696      13 -97.0675      14 -97.0685      15 -97.0695
      16 -97.0913      17 -96.9846      18 -96.9864      19 -96.9853      20 -96.9854
      21 -97.0913      22 -96.9864      23 -96.9873      24 -97.0913      25 -87.0020
      26 -87.0749      27 -87.0750      28 -87.0746      29 -87.0805      30 -87.0110
      31 -87.0802      32 -87.0799      33 -87.0805      34 -87.0802      35 -87.0798
      36 -87.0753      37 -87.0750      38 -87.0743      39 -87.0570      40 -86.8510
      41 -87.1025      42 -87.0922      43 -87.0533      44 -86.8507      45 -86.8506
      46 -87.0916      47 -87.1028      48 -86.8509      49 -87.0575      50 -86.8506
      51 -87.0534      52 -87.0915      53 -86.8498      54 -87.1022      55 -87.0568
      56 -87.0534
 
 
 
 E-fermi :   5.3465     XC(G=0):  -9.4026     alpha+bet : -9.6761


 k-point     1 :       0.0000    0.0000    0.0000
  band No.  band energies     occupation 
      1     -10.7543      2.00000
      2     -10.7538      2.00000
      3     -10.7289      2.00000
      4     -10.6685      2.00000
      5     -10.6413      2.00000
      6     -10.6407      2.00000
      7     -10.6361      2.00000
      8     -10.6359      2.00000
      9     -10.6347      2.00000
     10     -10.5942      2.00000
     11     -10.5584      2.00000
     12     -10.5584      2.00000
     13     -10.5539      2.00000
     14     -10.4984      2.00000
     15     -10.4979      2.00000
     16     -10.4470      2.00000
     17     -10.4398      2.00000
     18     -10.4396      2.00000
     19     -10.4220      2.00000
     20     -10.4049      2.00000
     21     -10.4046      2.00000
     22     -10.3915      2.00000
     23     -10.3789      2.00000
     24     -10.3785      2.00000
     25     -10.3575      2.00000
     26     -10.3256      2.00000
     27     -10.3253      2.00000
     28     -10.3165      2.00000
     29     -10.3164      2.00000
     30     -10.3159      2.00000
     31     -10.3101      2.00000
     32     -10.3092      2.00000
     33     -10.2953      2.00000
     34     -10.2947      2.00000
     35     -10.2917      2.00000
     36     -10.2879      2.00000
     37     -10.2876      2.00000
     38     -10.2819      2.00000
     39     -10.2781      2.00000
     40     -10.2779      2.00000
     41     -10.2777      2.00000
     42     -10.2772      2.00000
     43     -10.2694      2.00000
     44     -10.2637      2.00000
     45     -10.2631      2.00000
     46     -10.2605      2.00000
     47     -10.2605      2.00000
     48     -10.2504      2.00000
     49     -10.2466      2.00000
     50     -10.2461      2.00000
     51     -10.2426      2.00000
     52     -10.2420      2.00000
     53     -10.2408      2.00000
     54     -10.2367      2.00000
     55     -10.2362      2.00000
     56     -10.2313      2.00000
     57     -10.2244      2.00000
     58     -10.2241      2.00000
     59     -10.2235      2.00000
     60     -10.1865      2.00000
     61     -10.1861      2.00000
     62     -10.1856      2.00000
     63     -10.1853      2.00000
     64     -10.1769      2.00000
     65     -10.1706      2.00000
     66     -10.1694      2.00000
     67     -10.1686      2.00000
     68     -10.1682      2.00000
     69     -10.1676      2.00000
     70     -10.1565      2.00000
     71     -10.1559      2.00000
     72     -10.1538      2.00000
     73     -10.1531      2.00000
     74     -10.1465      2.00000
     75     -10.1394      2.00000
     76      -9.4022      2.00000
     77      -8.9587      2.00000
     78      -8.9586      2.00000
     79      -8.9482      2.00000
     80      -8.9480      2.00000
     81      -8.8560      2.00000
     82      -8.7523      2.00000
     83      -8.4330      2.00000
     84      -8.2816      2.00000
     85      -8.2813      2.00000
     86      -8.2550      2.00000
     87      -8.2134      2.00000
     88      -8.2132      2.00000
     89      -8.1927      2.00000
     90      -8.1218      2.00000
     91      -8.1218      2.00000
     92      -8.1073      2.00000
     93      -7.9958      2.00000
     94      -7.9957      2.00000
     95      -7.9609      2.00000
     96      -7.9389      2.00000
     97      -7.8855      2.00000
     98      -7.8852      2.00000
     99      -7.6226      2.00000
    100      -7.6224      2.00000
    101      -7.5668      2.00000
    102      -7.5201      2.00000
    103      -7.5199      2.00000
    104      -7.5190      2.00000
    105      -7.5155      2.00000
    106      -7.5152      2.00000
    107      -7.4458      2.00000
    108      -4.2797      2.00000
    109      -4.2731      2.00000
    110      -4.2730      2.00000
    111      -4.2703      2.00000
    112      -4.2703      2.00000
    113      -4.2696      2.00000
    114      -4.1869      2.00000
    115      -4.1868      2.00000
    116      -4.1847      2.00000
    117      -4.1846      2.00000
    118      -4.1698      2.00000
    119      -4.1687      2.00000
    120      -4.1389      2.00000
    121      -4.1389      2.00000
    122      -4.1367      2.00000
    123      -4.1366      2.00000
    124      -4.1249      2.00000
    125      -4.1248      2.00000
    126      -4.1010      2.00000
    127      -4.0989      2.00000
    128      -4.0989      2.00000
    129      -4.0891      2.00000
    130      -4.0891      2.00000
    131      -4.0868      2.00000
    132      -4.0867      2.00000
    133      -4.0764      2.00000
    134      -4.0760      2.00000
    135      -4.0760      2.00000
    136      -4.0753      2.00000
    137      -4.0751      2.00000
    138      -4.0743      2.00000
    139      -4.0743      2.00000
    140      -4.0743      2.00000
    141      -4.0735      2.00000
    142      -4.0601      2.00000
    143      -4.0600      2.00000
    144      -4.0522      2.00000
    145      -4.0462      2.00000
    146      -4.0438      2.00000
    147      -4.0437      2.00000
    148      -3.6236      2.00000
    149      -3.5928      2.00000
    150      -3.5928      2.00000
    151      -3.5449      2.00000
    152      -3.5449      2.00000
    153      -2.1376      2.00000
    154      -2.0050      2.00000
    155      -2.0047      2.00000
    156      -1.9947      2.00000
    157      -1.6210      2.00000
    158      -1.6207      2.00000
    159      -1.6206      2.00000
    160      -1.5651      2.00000
    161      -1.5649      2.00000
    162      -1.5168      2.00000
    163      -1.3422      2.00000
    164      -1.2087      2.00000
    165      -1.2086      2.00000
    166      -1.1904      2.00000
    167      -1.1902      2.00000
    168      -1.1322      2.00000
    169      -0.4263      2.00000
    170      -0.3429      2.00000
    171      -0.3428      2.00000
    172      -0.2624      2.00000
    173      -0.2622      2.00000
    174      -0.2402      2.00000
    175      -0.2400      2.00000
    176      -0.1974      2.00000
    177      -0.1320      2.00000
    178       0.3805      2.00000
    179       0.3986      2.00000
    180       0.4502      2.00000
    181       0.4505      2.00000
    182       0.5114      2.00000
    183       0.5116      2.00000
    184       0.7256      2.00000
    185       0.7257      2.00000
    186       0.7522      2.00000
    187       0.7523      2.00000
    188       0.7542      2.00000
    189       0.8856      2.00000
    190       0.9477      2.00000
    191       0.9814      2.00000
    192       0.9815      2.00000
    193       1.0002      2.00000
    194       1.0157      2.00000
    195       1.0201      2.00000
    196       1.0202      2.00000
    197       1.0267      2.00000
    198       1.0839      2.00000
    199       1.0840      2.00000
    200       1.1100      2.00000
    201       1.1101      2.00000
    202       1.1584      2.00000
    203       1.1585      2.00000
    204       1.2635      2.00000
    205       1.5234      2.00000
    206       1.5885      2.00000
    207       1.5887      2.00000
    208       1.6337      2.00000
    209       1.6338      2.00000
    210       1.6354      2.00000
    211       1.6444      2.00000
    212       1.6627      2.00000
    213       1.6628      2.00000
    214       1.9399      2.00000
    215       1.9620      2.00000
    216       1.9622      2.00000
    217       2.0189      2.00000
    218       2.0189      2.00000
    219       2.0977      2.00000
    220       2.2496      2.00000
    221       2.2618      2.00000
    222       2.2709      2.00000
    223       2.2710      2.00000
    224       2.3485      2.00000
    225       2.3487      2.00000
    226       2.6981      2.00000
    227       2.6983      2.00000
    228       2.7216      2.00000
    229       2.7841      2.00000
    230       2.8066      2.00000
    231       2.8121      2.00000
    232       2.8123      2.00000
    233       2.8836      2.00000
    234       2.8838      2.00000
    235       2.8891      2.00000
    236       2.8892      2.00000
    237       2.9174      2.00000
    238       2.9561      2.00000
    239       2.9562      2.00000
    240       3.0061      2.00000
    241       3.0355      2.00000
    242       3.0355      2.00000
    243       3.0439      2.00000
    244       3.0441      2.00000
    245       3.0465      2.00000
    246       3.0938      2.00000
    247       3.3537      2.00000
    248       3.3540      2.00000
    249       4.2216      1.98452
    250       5.1143      1.11752
    251       5.1148      0.68052
    252       5.2354      0.14034
    253       5.5301      0.00000
    254       6.2850      0.00000
    255       6.2853      0.00000
    256       6.3155      0.00000
    257       6.3156      0.00000
    258       6.3552      0.00000
    259       6.4058      0.00000
    260       6.5566      0.00000
    261       6.5875      0.00000
    262       6.5877      0.00000
    263       6.6268      0.00000
    264       6.6272      0.00000
    265       6.9940      0.00000
    266       7.3371      0.00000
    267       7.4631      0.00000
    268       7.5206      0.00000
    269       7.5208      0.00000
    270       7.6260      0.00000
    271       7.6261      0.00000
    272       7.6363      0.00000
    273       7.6612      0.00000
    274       7.6614      0.00000
    275       7.8113      0.00000
    276       8.5264      0.00000
    277       8.5266      0.00000
    278       8.5338      0.00000
    279       8.5338      0.00000
    280       8.5715      0.00000
    281       8.5830      0.00000
    282       8.7664      0.00000
    283       8.7704      0.00000
    284       8.7705      0.00000
    285       8.8020      0.00000
    286       8.8979      0.00000
    287       8.8981      0.00000
    288       9.0826      0.00000
    289       9.0828      0.00000
    290       9.1556      0.00000
    291       9.5280      0.00000
    292       9.5281      0.00000
    293       9.8063      0.00000
    294       9.8065      0.00000
    295       9.8134      0.00000
    296       9.8271      0.00000
    297       9.8279      0.00000
    298       9.8423      0.00000
    299       9.9297      0.00000
    300       9.9352      0.00000
    301       9.9853      0.00000
    302      10.0674      0.00000
    303      10.1074      0.00000
    304      10.1598      0.00000

 k-point     2 :       0.3333    0.0000    0.0000
  band No.  band energies     occupation 
      1     -10.7424      2.00000
      2     -10.7375      2.00000
      3     -10.7130      2.00000
      4     -10.6891      2.00000
      5     -10.6844      2.00000
      6     -10.6628      2.00000
      7     -10.6618      2.00000
      8     -10.6367      2.00000
      9     -10.6221      2.00000
     10     -10.5940      2.00000
     11     -10.5533      2.00000
     12     -10.5473      2.00000
     13     -10.5219      2.00000
     14     -10.4972      2.00000
     15     -10.4683      2.00000
     16     -10.4503      2.00000
     17     -10.4441      2.00000
     18     -10.4376      2.00000
     19     -10.4243      2.00000
     20     -10.4008      2.00000
     21     -10.3916      2.00000
     22     -10.3852      2.00000
     23     -10.3800      2.00000
     24     -10.3749      2.00000
     25     -10.3562      2.00000
     26     -10.3489      2.00000
     27     -10.3296      2.00000
     28     -10.3252      2.00000
     29     -10.3203      2.00000
     30     -10.3110      2.00000
     31     -10.3087      2.00000
     32     -10.3019      2.00000
     33     -10.3003      2.00000
     34     -10.2973      2.00000
     35     -10.2924      2.00000
     36     -10.2876      2.00000
     37     -10.2862      2.00000
     38     -10.2852      2.00000
     39     -10.2804      2.00000
     40     -10.2800      2.00000
     41     -10.2774      2.00000
     42     -10.2745      2.00000
     43     -10.2702      2.00000
     44     -10.2669      2.00000
     45     -10.2613      2.00000
     46     -10.2599      2.00000
     47     -10.2597      2.00000
     48     -10.2537      2.00000
     49     -10.2463      2.00000
     50     -10.2451      2.00000
     51     -10.2441      2.00000
     52     -10.2422      2.00000
[...]
 13        0.739   0.595   9.949  11.283
 14        0.739   0.595   9.949  11.283
 15        0.739   0.595   9.949  11.283
 16        0.732   0.602   9.951  11.285
 17        0.738   0.598   9.950  11.285
 18        0.737   0.597   9.950  11.284
 19        0.738   0.597   9.950  11.284
 20        0.737   0.598   9.950  11.285
 21        0.732   0.602   9.951  11.285
 22        0.738   0.598   9.950  11.285
 23        0.738   0.597   9.950  11.284
 24        0.732   0.602   9.951  11.285
 25        1.342   2.386   0.000   3.728
 26        1.342   2.385   0.000   3.728
 27        1.342   2.385   0.000   3.728
 28        1.342   2.385   0.000   3.728
 29        1.342   2.386   0.000   3.728
 30        1.342   2.387   0.000   3.729
 31        1.343   2.386   0.000   3.728
 32        1.343   2.386   0.000   3.728
 33        1.342   2.386   0.000   3.728
 34        1.343   2.386   0.000   3.728
 35        1.343   2.386   0.000   3.728
 36        1.342   2.385   0.000   3.728
 37        1.342   2.385   0.000   3.728
 38        1.342   2.385   0.000   3.728
 39        1.343   2.382   0.000   3.725
 40        1.340   2.389   0.000   3.728
 41        1.342   2.385   0.000   3.728
 42        1.342   2.385   0.000   3.728
 43        1.343   2.382   0.000   3.725
 44        1.340   2.388   0.000   3.728
 45        1.340   2.388   0.000   3.728
 46        1.342   2.385   0.000   3.728
 47        1.342   2.385   0.000   3.728
 48        1.340   2.389   0.000   3.728
 49        1.343   2.382   0.000   3.725
 50        1.340   2.389   0.000   3.728
 51        1.343   2.382   0.000   3.725
 52        1.342   2.385   0.000   3.728
 53        1.340   2.388   0.000   3.728
 54        1.342   2.385   0.000   3.728
 55        1.343   2.382   0.000   3.725
 56        1.343   2.382   0.000   3.725
------------------------------------------------
tot       57.786  87.901 235.331 381.018
 
    CHARGE:  cpu time   13.88: real time   13.93
    FORLOC:  cpu time    0.29: real time    0.29
    FORNL :  cpu time  208.47: real time  209.05
    FORCOR:  cpu time    0.92: real time    0.94
    FORHAR:  cpu time    0.43: real time    0.43
    MIXING:  cpu time    0.02: real time    0.02
    OFIELD:  cpu time    0.00: real time    0.00

 VOLUME and BASIS-vectors are now :
 -----------------------------------------------------------------------------
  energy-cutoff  :      600.00
  volume of cell :     1339.13
      direct lattice vectors                 reciprocal lattice vectors
    11.022353692  0.000000000  0.000000000     0.090724724  0.000000000  0.000000000
     0.000000000 11.022353692  0.000000000     0.000000000  0.090724724  0.000000000
     0.000000000  0.000000000 11.022353692     0.000000000  0.000000000  0.090724724

  length of vectors
    11.022353692 11.022353692 11.022353692     0.090724724  0.090724724  0.090724724


 FORCES acting on ions
    electron-ion (+dipol)            ewald-force                    non-local-force                 convergence-correction
 -----------------------------------------------------------------------------------------------
   -.731E+00 -.745E+00 -.717E+00   0.595E+00 0.598E+00 0.596E+00   0.139E+00 0.139E+00 0.123E+00   -.286E-02 0.805E-02 0.522E-03
   0.528E+01 0.389E+01 0.391E+01   -.560E+01 -.357E+01 -.357E+01   0.331E+00 -.315E+00 -.328E+00   -.433E-02 0.336E-02 -.292E-02
   0.392E+01 0.389E+01 0.528E+01   -.359E+01 -.357E+01 -.559E+01   -.313E+00 -.315E+00 0.315E+00   -.551E-02 0.364E-02 -.576E-03
   0.392E+01 0.531E+01 0.393E+01   -.359E+01 -.564E+01 -.359E+01   -.313E+00 0.328E+00 -.327E+00   -.501E-02 0.726E-02 -.219E-02
   -.473E+01 -.589E+01 -.474E+01   0.438E+01 0.620E+01 0.438E+01   0.352E+00 -.298E+00 0.367E+00   0.500E-02 -.723E-02 0.219E-02
   0.105E+01 0.112E+01 0.103E+01   -.863E+00 -.920E+00 -.858E+00   -.191E+00 -.190E+00 -.174E+00   0.303E-02 -.816E-02 -.490E-03
   -.598E+01 -.466E+01 -.466E+01   0.628E+01 0.433E+01 0.430E+01   -.300E+00 0.350E+00 0.364E+00   0.427E-02 -.322E-02 0.301E-02
   -.468E+01 -.468E+01 -.597E+01   0.433E+01 0.434E+01 0.626E+01   0.350E+00 0.350E+00 -.285E+00   0.553E-02 -.356E-02 0.697E-03
   0.456E+00 0.415E+00 0.467E+00   -.463E+00 -.423E+00 -.473E+00   0.593E-02 0.698E-02 0.577E-02   0.520E-04 0.589E-04 -.646E-05
   0.865E+00 -.292E+00 -.734E-01   -.787E+00 0.205E+00 0.745E-01   -.819E-01 0.882E-01 0.729E-02   -.608E-03 0.248E-02 -.125E-02
   -.279E+00 -.317E-01 0.874E+00   0.194E+00 0.309E-01 -.794E+00   0.876E-01 0.723E-02 -.831E-01   0.116E-02 0.317E-03 -.162E-02
   -.114E+00 0.896E+00 -.272E+00   0.114E+00 -.816E+00 0.187E+00   0.686E-02 -.821E-01 0.879E-01   0.686E-03 -.209E-02 0.101E-02
   -.268E+00 0.897E+00 -.101E+00   0.184E+00 -.817E+00 0.101E+00   0.876E-01 -.822E-01 0.599E-02   0.595E-03 -.230E-02 0.113E-02
   0.876E+00 -.314E-01 -.277E+00   -.796E+00 0.321E-01 0.191E+00   -.833E-01 0.672E-02 0.876E-01   -.105E-02 -.465E-03 0.178E-02
   -.780E-01 -.290E+00 0.865E+00   0.782E-01 0.204E+00 -.787E+00   0.762E-02 0.874E-01 -.817E-01   -.859E-03 0.225E-02 -.950E-03
   -.315E+00 -.132E+00 -.138E+00   0.338E+00 0.120E+00 0.125E+00   -.882E-02 0.166E-01 0.168E-01   -.153E-03 0.699E-05 0.171E-04
   -.265E+01 -.264E+01 -.565E+01   0.325E+01 0.324E+01 0.558E+01   -.580E+00 -.582E+00 0.699E-01   -.829E-03 -.273E-02 0.878E-03
   0.128E+01 0.692E+01 0.128E+01   -.190E+01 -.686E+01 -.190E+01   0.626E+00 -.674E-01 0.627E+00   0.220E-02 -.180E-03 0.276E-02
   0.115E+01 0.114E+01 0.706E+01   -.177E+01 -.177E+01 -.700E+01   0.628E+00 0.629E+00 -.719E-01   0.861E-03 0.265E-02 -.113E-02
   -.266E+01 -.572E+01 -.265E+01   0.326E+01 0.565E+01 0.325E+01   -.581E+00 0.704E-01 -.582E+00   -.201E-02 0.101E-03 -.272E-02
   -.175E+00 -.352E+00 -.155E+00   0.162E+00 0.375E+00 0.143E+00   0.167E-01 -.902E-02 0.159E-01   0.168E-05 0.143E-05 -.498E-04
   -.565E+01 -.266E+01 -.265E+01   0.558E+01 0.325E+01 0.325E+01   0.696E-01 -.580E+00 -.580E+00   0.133E-02 -.221E-02 -.955E-03
   0.706E+01 0.116E+01 0.114E+01   -.700E+01 -.178E+01 -.176E+01   -.719E-01 0.627E+00 0.628E+00   -.154E-02 0.219E-02 0.919E-03
   -.137E+00 -.125E+00 -.315E+00   0.125E+00 0.113E+00 0.338E+00   0.167E-01 0.163E-01 -.875E-02   0.286E-04 -.102E-03 -.624E-04
   0.551E+02 0.551E+02 0.551E+02   -.543E+02 -.543E+02 -.543E+02   -.817E+00 -.820E+00 -.826E+00   -.172E-02 -.216E-03 -.100E-02
   -.584E+02 -.559E+02 0.557E+02   0.578E+02 0.551E+02 -.551E+02   0.586E+00 0.851E+00 -.575E+00   -.211E-02 0.278E-02 0.189E-03
   -.560E+02 0.557E+02 -.584E+02   0.551E+02 -.551E+02 0.578E+02   0.850E+00 -.571E+00 0.587E+00   -.721E-04 0.510E-03 0.161E-02
   0.557E+02 -.584E+02 -.560E+02   -.551E+02 0.579E+02 0.552E+02   -.568E+00 0.592E+00 0.845E+00   -.571E-04 0.157E-02 -.562E-03
   0.567E+02 0.588E+02 -.561E+02   -.559E+02 -.582E+02 0.555E+02   -.856E+00 -.618E+00 0.597E+00   0.124E-02 -.286E-02 -.140E-03
   -.557E+02 -.557E+02 -.558E+02   0.550E+02 0.549E+02 0.550E+02   0.795E+00 0.801E+00 0.804E+00   0.172E-02 0.147E-03 0.944E-03
   0.588E+02 -.561E+02 0.567E+02   -.583E+02 0.555E+02 -.559E+02   -.617E+00 0.592E+00 -.855E+00   0.263E-03 -.507E-03 -.141E-02
   -.560E+02 0.568E+02 0.588E+02   0.555E+02 -.559E+02 -.583E+02   0.590E+00 -.861E+00 -.614E+00   0.493E-04 -.196E-02 0.141E-02
   0.588E+02 0.568E+02 -.561E+02   -.583E+02 -.559E+02 0.555E+02   -.614E+00 -.860E+00 0.598E+00   0.202E-02 -.281E-02 -.171E-03
   0.568E+02 -.561E+02 0.588E+02   -.559E+02 0.555E+02 -.583E+02   -.857E+00 0.592E+00 -.614E+00   0.110E-03 -.511E-03 -.166E-02
   -.561E+02 0.588E+02 0.567E+02   0.555E+02 -.582E+02 -.559E+02   0.589E+00 -.620E+00 -.855E+00   0.694E-04 -.158E-02 0.538E-03
   -.560E+02 -.584E+02 0.557E+02   0.552E+02 0.578E+02 -.551E+02   0.847E+00 0.590E+00 -.575E+00   -.124E-02 0.288E-02 0.142E-03
   -.584E+02 0.557E+02 -.559E+02   0.578E+02 -.551E+02 0.551E+02   0.589E+00 -.571E+00 0.847E+00   -.320E-03 0.517E-03 0.145E-02
   0.556E+02 -.559E+02 -.584E+02   -.551E+02 0.551E+02 0.578E+02   -.568E+00 0.852E+00 0.586E+00   -.429E-04 0.190E-02 -.147E-02
   0.574E+02 0.586E+02 0.586E+02   -.567E+02 -.580E+02 -.580E+02   -.671E+00 -.580E+00 -.588E+00   -.205E-02 0.172E-02 -.248E-03
   -.587E+02 -.587E+02 0.391E+02   0.582E+02 0.582E+02 -.377E+02   0.499E+00 0.502E+00 -.142E+01   -.129E-02 0.233E-02 -.162E-02
   -.572E+02 0.573E+02 -.572E+02   0.565E+02 -.566E+02 0.565E+02   0.711E+00 -.648E+00 0.709E+00   -.195E-03 -.168E-02 0.178E-02
   0.563E+02 0.564E+02 -.570E+02   -.556E+02 -.556E+02 0.564E+02   -.715E+00 -.720E+00 0.650E+00   0.209E-02 -.323E-02 0.113E-02
   -.569E+02 -.580E+02 -.581E+02   0.563E+02 0.574E+02 0.574E+02   0.690E+00 0.634E+00 0.641E+00   0.203E-02 -.175E-02 0.320E-03
   0.597E+02 -.400E+02 0.597E+02   -.592E+02 0.387E+02 -.592E+02   -.482E+00 0.138E+01 -.479E+00   0.314E-03 0.219E-02 -.110E-02
   0.596E+02 0.596E+02 -.400E+02   -.592E+02 -.591E+02 0.387E+02   -.480E+00 -.483E+00 0.138E+01   0.130E-02 -.233E-02 0.161E-02
   0.563E+02 -.570E+02 0.563E+02   -.556E+02 0.564E+02 -.556E+02   -.717E+00 0.644E+00 -.715E+00   0.226E-03 0.172E-02 -.177E-02
   -.572E+02 -.572E+02 0.573E+02   0.565E+02 0.565E+02 -.566E+02   0.708E+00 0.713E+00 -.654E+00   -.206E-02 0.318E-02 -.114E-02
   -.586E+02 0.391E+02 -.586E+02   0.581E+02 -.377E+02 0.581E+02   0.502E+00 -.142E+01 0.499E+00   -.332E-03 -.219E-02 0.105E-02
   0.586E+02 0.575E+02 0.587E+02   -.581E+02 -.569E+02 -.581E+02   -.579E+00 -.670E+00 -.588E+00   -.150E-02 -.466E-03 -.887E-04
   0.391E+02 -.587E+02 -.587E+02   -.377E+02 0.582E+02 0.582E+02   -.141E+01 0.505E+00 0.498E+00   -.137E-02 0.155E-02 -.670E-03
   -.580E+02 -.570E+02 -.581E+02   0.574E+02 0.563E+02 0.574E+02   0.632E+00 0.691E+00 0.642E+00   0.151E-02 0.553E-03 0.757E-04
   -.570E+02 0.564E+02 0.563E+02   0.564E+02 -.556E+02 -.556E+02   0.641E+00 -.721E+00 -.715E+00   0.897E-03 -.187E-02 0.140E-02
   -.400E+02 0.596E+02 0.596E+02   0.387E+02 -.591E+02 -.592E+02   0.138E+01 -.486E+00 -.480E+00   0.138E-02 -.152E-02 0.669E-03
   0.573E+02 -.572E+02 -.572E+02   -.566E+02 0.565E+02 0.565E+02   -.646E+00 0.715E+00 0.708E+00   -.901E-03 0.185E-02 -.133E-02
   0.586E+02 0.586E+02 0.574E+02   -.580E+02 -.580E+02 -.567E+02   -.579E+00 -.579E+00 -.679E+00   -.164E-02 0.181E-02 -.128E-02
   -.580E+02 -.580E+02 -.570E+02   0.574E+02 0.574E+02 0.563E+02   0.632E+00 0.634E+00 0.698E+00   0.167E-02 -.182E-02 0.130E-02
 -----------------------------------------------------------------------------------------------
   -.259E+00 -.263E+00 -.253E+00   0.213E-13 0.995E-13 0.639E-13   0.260E+00 0.263E+00 0.254E+00   0.615E-05 0.241E-04 -.491E-04
 
 
 POSITION                                       TOTAL-FORCE (eV/Angst)
 -----------------------------------------------------------------------------------
     11.01556     11.01564     11.01554         0.000943     -0.000606      0.001728
      0.01643      5.52516      5.52497         0.010368      0.007837      0.010190
      5.52506      5.52511      0.01644         0.008946      0.007591      0.011385
      5.52511      0.01654      5.52514         0.008954      0.008912      0.009623
      8.24441      2.74170      8.24442         0.010429      0.005040      0.009593
      2.76294      2.76302      2.76290        -0.002599     -0.001661     -0.003235
      2.74143      8.24479      8.24459         0.005058      0.010088      0.008150
      8.24450      8.24471      2.74143         0.009807      0.010655      0.003704
      6.89004      6.88998      6.89011        -0.000765     -0.001022     -0.001090
      4.13628      9.64410      1.37473        -0.004602      0.003648      0.007101
      9.64410      1.37475      4.13629         0.003607      0.006743     -0.004375
      1.37480      4.13629      9.64410         0.007726     -0.004576      0.003637
      9.64412      4.13625      1.37483         0.003644     -0.004462      0.007434
      4.13630      1.37477      9.64412        -0.004362      0.006945      0.003461
      1.37475      9.64415      4.13628         0.006998      0.003534     -0.004671
      6.89078      1.37638      1.37629         0.014319      0.004493      0.004055
      4.15213      4.15224      6.89968         0.017771      0.017282      0.000745
      9.62215      6.88107      9.62215         0.006856     -0.010146      0.006720
      9.62182      9.62187      6.88181         0.008795      0.008456     -0.012587
      4.15221      6.89972      4.15223         0.017778      0.001084      0.017402
      1.37635      6.89079      1.37634         0.004581      0.014510      0.004214
      6.89966      4.15222      4.15216         0.000718      0.017684      0.017710
      6.88178      9.62184      9.62187        -0.012425      0.008416      0.008849
      1.37629      1.37636      6.89078         0.004028      0.004453      0.014285
      4.23620      4.23652      4.23626        -0.006769     -0.006879     -0.005415
      6.78015      1.26526      9.76044         0.015918      0.007115      0.006602
      1.26498      9.76066      6.78015         0.007733      0.004896      0.017133
      9.76064      6.78016      1.26522         0.004750      0.015738      0.006409
      1.49402      7.00510      4.01624        -0.045554     -0.055973      0.010612
      9.54191      9.54141      9.54193         0.002482      0.001828      0.000755
      7.00510      4.01620      1.49399        -0.055601      0.011973     -0.046488
      4.01623      1.49403      7.00506         0.011255     -0.045220     -0.053845
      7.00507      1.49403      4.01626        -0.054824     -0.046541      0.010423
      1.49400      4.01622      7.00506        -0.046250      0.011744     -0.056013
      4.01627      7.00509      1.49396         0.011433     -0.054780     -0.044462
      1.26520      6.78016      9.76049         0.007278      0.016862      0.006556
      6.78015      9.76075      1.26508         0.016571      0.004254      0.007723
      9.76045      1.26528      6.78013         0.005743      0.005740      0.015251
      4.22293      9.74303      9.74302        -0.008929      0.009773      0.009632
      6.77107      6.77109      4.19217        -0.002657     -0.001625     -0.012904
      1.27228      4.23733      1.27231         0.012529     -0.010690      0.012866
      1.48288      1.48292      9.54580        -0.001695     -0.003188     -0.003814
      9.56070      4.03046      4.03047         0.000821     -0.002750     -0.002826
      7.00435      9.58913      7.00437        -0.002343      0.011072     -0.002678
      7.00440      7.00408      9.58921        -0.000897     -0.001668      0.009975
      1.48288      9.54581      1.48288        -0.002239     -0.002574     -0.002954
      1.27228      1.27232      4.23731         0.012151      0.013382     -0.009769
      6.77104      4.19218      6.77105        -0.003224     -0.013169     -0.002780
      9.74318      4.22282      9.74315         0.006990     -0.009038      0.009116
      4.19224      6.77095      6.77102        -0.014453     -0.001628     -0.002729
      4.03050      9.56066      4.03045        -0.000774     -0.000098     -0.002474
      9.54583      1.48286      1.48290        -0.002946     -0.001412     -0.000803
      9.58917      7.00421      7.00439         0.010854     -0.001128     -0.000204
      4.23728      1.27231      1.27227        -0.010603      0.011726      0.011160
      9.74302      9.74298      4.22296         0.007747      0.009957     -0.007353
      4.03050      4.03043      9.56067        -0.001068     -0.002596     -0.000728
 -----------------------------------------------------------------------------------
    total drift:                                0.000349      0.000421      0.000367


--------------------------------------------------------------------------------------------------------



  FREE ENERGIE OF THE ION-ELECTRON SYSTEM (eV)
  ---------------------------------------------------
  free  energy   TOTEN  =      -200.69064820 eV

  energy  without entropy=     -200.69064820  energy(sigma->0) =     -200.69064820
 


--------------------------------------------------------------------------------------------------------


    POTLOK:  cpu time    0.75: real time    0.77


--------------------------------------------------------------------------------------------------------


 writing wavefunctions
     LOOP+:  cpu time 6536.58: real time 6689.18
    4ORBIT:  cpu time    0.00: real time    0.00
 


 total charge     
 
# of ion     s       p       d       tot
----------------------------------------
  1        0.427   0.293   9.562  10.282
  2        0.426   0.290   9.562  10.278
  3        0.426   0.290   9.562  10.278
  4        0.426   0.290   9.562  10.278
  5        0.426   0.292   9.562  10.280
  6        0.427   0.292   9.562  10.280
  7        0.426   0.292   9.562  10.280
  8        0.426   0.292   9.562  10.280
  9        0.380   0.276   9.590  10.246
 10        0.739   0.595   9.949  11.283
 11        0.739   0.595   9.949  11.283
 12        0.739   0.595   9.949  11.283
 13        0.739   0.595   9.949  11.283
 14        0.739   0.595   9.949  11.283
 15        0.739   0.595   9.949  11.283
 16        0.732   0.602   9.951  11.285
 17        0.738   0.598   9.950  11.285
 18        0.737   0.597   9.950  11.284
 19        0.738   0.597   9.950  11.284
 20        0.737   0.598   9.950  11.285
 21        0.732   0.602   9.951  11.285
 22        0.738   0.598   9.950  11.285
 23        0.738   0.597   9.950  11.284
 24        0.732   0.602   9.951  11.285
 25        1.342   2.386   0.000   3.728
 26        1.342   2.385   0.000   3.728
 27        1.342   2.385   0.000   3.728
 28        1.342   2.385   0.000   3.728
 29        1.342   2.386   0.000   3.728
 30        1.342   2.387   0.000   3.729
 31        1.343   2.386   0.000   3.728
 32        1.343   2.386   0.000   3.728
 33        1.342   2.386   0.000   3.728
 34        1.343   2.386   0.000   3.728
 35        1.343   2.386   0.000   3.728
 36        1.342   2.385   0.000   3.728
 37        1.342   2.385   0.000   3.728
 38        1.342   2.385   0.000   3.728
 39        1.343   2.382   0.000   3.725
 40        1.340   2.389   0.000   3.728
 41        1.342   2.385   0.000   3.728
 42        1.342   2.385   0.000   3.728
 43        1.343   2.382   0.000   3.725
 44        1.340   2.388   0.000   3.728
 45        1.340   2.388   0.000   3.728
 46        1.342   2.385   0.000   3.728
 47        1.342   2.385   0.000   3.728
 48        1.340   2.389   0.000   3.728
 49        1.343   2.382   0.000   3.725
 50        1.340   2.389   0.000   3.728
 51        1.343   2.382   0.000   3.725
 52        1.342   2.385   0.000   3.728
 53        1.340   2.388   0.000   3.728
 54        1.342   2.385   0.000   3.728
 55        1.343   2.382   0.000   3.725
 56        1.343   2.382   0.000   3.725
------------------------------------------------
tot       57.786  87.901 235.331 381.018
 
 BZINTS: Fermi energy:  5.346512;497.000000 electrons
         Band energy:***********;  BLOECHL correction:  0.000000

 total amount of memory used by VASP on root node   604991. kBytes
========================================================================

   base      :      30000. kBytes
   nonl-proj :     310535. kBytes
   fftplans  :      15950. kBytes
   grid      :      54380. kBytes
   one-center:        870. kBytes
   wavefun   :     193256. kBytes
 
  
  
 General timing and accounting informations for this job:
 ========================================================
  
                  Total CPU time used (sec):     6720.316
                            User time (sec):     6643.939
                          System time (sec):       76.377
                         Elapsed time (sec):     9609.821
  
                   Maximum memory used (kb):      673744.
                   Average memory used (kb):           0.
  
                          Minor page faults:        24157
                          Major page faults:            0
                 Voluntary context switches:      4317344
