 vasp.5.3.5 31Mar14 (build Jan 22 2015 17:36:29) complex                        
  
 executed on             LinuxIFC date 2016.08.28  01:52:54
 running on   16 total cores
 distrk:  each k-point on   16 cores,    1 groups
 distr:  one band on NCORES_PER_BAND=   4 cores,    4 groups


--------------------------------------------------------------------------------------------------------


 INCAR:
 POTCAR:    PAW_PBE Cd 06Sep2000                  
 POTCAR:    PAW_PBE In_d 06Sep2000                
 POTCAR:    PAW_PBE S 06Sep2000                   
 POTCAR:    PAW_PBE Cd 06Sep2000                  
   VRHFIN =Cd : s2 d10                                                          
   LEXCH  = PE                                                                  
   EATOM  =  1293.1815 eV,   95.0462 Ry                                         
                                                                                
   TITEL  = PAW_PBE Cd 06Sep2000                                                
   LULTRA =        F    use ultrasoft PP ?                                      
   IUNSCR =        1    unscreen: 0-lin 1-nonlin 2-no                           
   RPACOR =    2.000    partial core radius                                     
   POMASS =  112.411; ZVAL   =   12.000    mass and valenz                      
   RCORE  =    2.300    outmost cutoff radius                                   
   RWIGS  =    2.980; RWIGS  =    1.577    wigner-seitz radius (au A)           
   ENMAX  =  274.336; ENMIN  =  205.752 eV                                      
   RCLOC  =    2.054    cutoff for local pot                                    
   LCOR   =        T    correct aug charges                                     
   LPAW   =        T    paw PP                                                  
   EAUG   =  456.106                                                            
   DEXC   =    0.000                                                            
   RMAX   =    2.358    core radius for proj-oper                               
   RAUG   =    1.300    factor for augmentation sphere                          
   RDEP   =    2.450    radius for radial grids                                 
   RDEPT  =    1.955    core radius for aug-charge                              
                                                                                
   Atomic configuration                                                         
   12 entries                                                                   
     n  l   j            E        occ.                                          
     1  0  0.50    -26519.7817   2.0000                                         
     2  0  0.50     -3936.9612   2.0000                                         
     2  1  1.50     -3532.2230   6.0000                                         
     3  0  0.50      -733.7908   2.0000                                         
     3  1  1.50      -601.0792   6.0000                                         
     3  2  2.50      -393.5307  10.0000                                         
     4  0  0.50      -105.8977   2.0000                                         
     4  1  1.50       -66.9488   6.0000                                         
     4  2  2.50       -11.7331  10.0000                                         
     5  0  0.50        -5.6592   2.0000                                         
     5  1  0.50        -1.3606   0.0000                                         
     4  3  2.50        -1.3606   0.0000                                         
   Description                                                                  
     l       E           TYP  RCUT    TYP  RCUT                                 
     2    -11.7331479     23  2.300                                             
     2    -13.0937305     23  2.300                                             
     0     -5.6591502     23  2.300                                             
     0     -1.5561433     23  2.300                                             
     1     -2.7211652     23  2.300                                             
     1      8.3548275     23  2.300                                             
  local pseudopotential read in
  partial core-charges read in
  partial kinetic energy density read in
  atomic valenz-charges read in
  non local Contribution for L=           2  read in
    real space projection operators read in
  non local Contribution for L=           2  read in
    real space projection operators read in
  non local Contribution for L=           0  read in
    real space projection operators read in
  non local Contribution for L=           0  read in
    real space projection operators read in
  non local Contribution for L=           1  read in
    real space projection operators read in
  non local Contribution for L=           1  read in
    real space projection operators read in
    PAW grid and wavefunctions read in
 
   number of l-projection  operators is LMAX  =           6
   number of lm-projection operators is LMMAX =          18
 
 POTCAR:    PAW_PBE In_d 06Sep2000                
   VRHFIN =In: s2p1                                                             
   LEXCH  = PE                                                                  
   EATOM  =  1576.8302 eV,  115.8937 Ry                                         
                                                                                
   TITEL  = PAW_PBE In_d 06Sep2000                                              
   LULTRA =        F    use ultrasoft PP ?                                      
   IUNSCR =        1    unscreen: 0-lin 1-nonlin 2-no                           
   RPACOR =    2.200    partial core radius                                     
   POMASS =  114.820; ZVAL   =   13.000    mass and valenz                      
   RCORE  =    2.500    outmost cutoff radius                                   
   RWIGS  =    3.170; RWIGS  =    1.677    wigner-seitz radius (au A)           
   ENMAX  =  239.211; ENMIN  =  179.409 eV                                      
   ICORE  =        3    local potential                                         
   LCOR   =        T    correct aug charges                                     
   LPAW   =        T    paw PP                                                  
   EAUG   =  449.704                                                            
   DEXC   =    0.000                                                            
   RMAX   =    2.552    core radius for proj-oper                               
   RAUG   =    1.300    factor for augmentation sphere                          
   RDEP   =    2.630    radius for radial grids                                 
   RDEPT  =    2.033    core radius for aug-charge                              
                                                                                
   Atomic configuration                                                         
   12 entries                                                                   
     n  l   j            E        occ.                                          
     1  0  0.50    -27747.9169   2.0000                                         
     2  0  0.50     -4154.4438   2.0000                                         
     2  1  1.50     -3728.4305   6.0000                                         
     3  0  0.50      -788.3680   2.0000                                         
     3  1  1.50      -648.9215   6.0000                                         
     3  2  2.50      -432.5893  10.0000                                         
     4  0  0.50      -119.6363   2.0000                                         
     4  1  1.50       -78.1086   6.0000                                         
     4  2  2.50       -18.6227  10.0000                                         
     5  0  0.50        -8.2107   2.0000                                         
     5  1  0.50        -2.5185   1.0000                                         
     4  3  2.50        -2.7212   0.0000                                         
   Description                                                                  
     l       E           TYP  RCUT    TYP  RCUT                                 
     2    -18.6226981     23  2.500                                             
     2     -1.3605826     23  2.500                                             
     0     -8.2107305     23  2.500                                             
     0     -6.1485975     23  2.500                                             
     1     -2.5184867     23  2.500                                             
     1      3.2427302     23  2.500                                             
     3     -1.3605826      7  2.500                                             
  local pseudopotential read in
  partial core-charges read in
  partial kinetic energy density read in
  atomic valenz-charges read in
  non local Contribution for L=           2  read in
    real space projection operators read in
  non local Contribution for L=           2  read in
    real space projection operators read in
  non local Contribution for L=           0  read in
    real space projection operators read in
  non local Contribution for L=           0  read in
    real space projection operators read in
  non local Contribution for L=           1  read in
    real space projection operators read in
  non local Contribution for L=           1  read in
    real space projection operators read in
    PAW grid and wavefunctions read in
 
   number of l-projection  operators is LMAX  =           6
   number of lm-projection operators is LMMAX =          18
 
 POTCAR:    PAW_PBE S 06Sep2000                   
   VRHFIN =S : s2p4                                                             
   LEXCH  = PE                                                                  
   EATOM  =   276.8230 eV,   20.3459 Ry                                         
                                                                                
   TITEL  = PAW_PBE S 06Sep2000                                                 
   LULTRA =        F    use ultrasoft PP ?                                      
   IUNSCR =        1    unscreen: 0-lin 1-nonlin 2-no                           
   RPACOR =    1.500    partial core radius                                     
   POMASS =   32.066; ZVAL   =    6.000    mass and valenz                      
   RCORE  =    1.900    outmost cutoff radius                                   
   RWIGS  =    2.200; RWIGS  =    1.164    wigner-seitz radius (au A)           
   ENMAX  =  258.689; ENMIN  =  194.016 eV                                      
   ICORE  =        2    local potential                                         
   LCOR   =        T    correct aug charges                                     
   LPAW   =        T    paw PP                                                  
   EAUG   =  335.092                                                            
   DEXC   =    0.000                                                            
   RMAX   =    1.942    core radius for proj-oper                               
   RAUG   =    1.300    factor for augmentation sphere                          
   RDEP   =    1.954    radius for radial grids                                 
   RDEPT  =    1.744    core radius for aug-charge                              
                                                                                
   Atomic configuration                                                         
    6 entries                                                                   
     n  l   j            E        occ.                                          
     1  0  0.50     -2405.8406   2.0000                                         
     2  0  0.50      -211.7007   2.0000                                         
     2  1  1.50      -156.4958   6.0000                                         
     3  0  0.50       -17.2562   2.0000                                         
     3  1  0.50        -7.0085   4.0000                                         
     3  2  1.50        -6.8029   0.0000                                         
   Description                                                                  
     l       E           TYP  RCUT    TYP  RCUT                                 
     0    -17.2561641     23  1.900                                             
     0    -15.8743224     23  1.900                                             
     1     -7.0085400     23  1.900                                             
     1     -2.7779785     23  1.900                                             
     2     -6.8029130     23  1.900                                             
  local pseudopotential read in
  partial core-charges read in
  partial kinetic energy density read in
  atomic valenz-charges read in
  non local Contribution for L=           0  read in
    real space projection operators read in
  non local Contribution for L=           0  read in
    real space projection operators read in
  non local Contribution for L=           1  read in
    real space projection operators read in
  non local Contribution for L=           1  read in
    real space projection operators read in
    PAW grid and wavefunctions read in
 
   number of l-projection  operators is LMAX  =           4
   number of lm-projection operators is LMMAX =           8
 

 ----------------------------------------------------------------------------- 
|                                                                             |
|  ADVICE TO THIS USER RUNNING 'VASP/VAMP'   (HEAR YOUR MASTER'S VOICE ...):  |
|                                                                             |
|      You have a (more or less) 'large supercell' and for larger cells       |
|      it might be more efficient to use real space projection opertators     |
|      So try LREAL= Auto  in the INCAR   file.                               |
|      Mind: At the moment your POTCAR file does not contain real space       |
|       projectors, and has to be modified,  BUT if you                       |
|      want to do an extremely  accurate calculation you might also keep the  |
|      reciprocal projection scheme          (i.e. LREAL=.FALSE.)             |
|                                                                             |
 ----------------------------------------------------------------------------- 

  PAW_PBE Cd 06Sep2000                  :
 energy of atom  1       EATOM=-1293.1815
 kinetic energy error for atom=    0.0041 (will be added to EATOM!!)
  PAW_PBE In_d 06Sep2000                :
 energy of atom  2       EATOM=-1576.8302
 kinetic energy error for atom=    0.0011 (will be added to EATOM!!)
  PAW_PBE S 06Sep2000                   :
 energy of atom  3       EATOM= -276.8230
 kinetic energy error for atom=    0.0009 (will be added to EATOM!!)
 
 
 POSCAR: Cd In2 S4                               
  positions in direct lattice
  velocities in cartesian coordinates
 exchange correlation table for  LEXCH =        8
   RHO(1)=    0.500       N(1)  =     2000
   RHO(2)=  100.500       N(2)  =     4000
 


--------------------------------------------------------------------------------------------------------


 ion  position               nearest neighbor table
   1  1.000  0.997  0.000-  53 2.54  31 2.58  47 2.58  43 2.59
   2  1.000  0.500  0.502-  44 2.54  35 2.58  54 2.58  30 2.59
   3  0.498  0.500  0.000-  32 2.54  57 2.58  36 2.58  46 2.59
   4  0.524  0.027  0.476-  34 2.38  33 2.65  52 2.68  45 2.68  25 2.87
   5  0.751  0.250  0.747-  50 2.55  39 2.58  49 2.58  27 2.59
   6  0.253  0.250  0.249-  42 2.55  55 2.58  26 2.58  48 2.59
   7  0.224  0.727  0.776-  37 2.38  28 2.66  40 2.66  51 2.70  25 2.86
   8  0.750  0.752  0.250-  29 2.55  38 2.58  56 2.58  41 2.59
   9  0.627  0.622  0.625-  54 2.62  49 2.62  46 2.62  41 2.63  51 2.73  45 2.74  22 3.82  18 3.82
                            19 3.90  17 3.90  25 3.91  20 3.94  23 3.94
  10  0.375  0.874  0.125-  36 2.64  38 2.64  55 2.64  47 2.64  40 2.72  52 2.74  14 3.89  23 3.89
                            15 3.90  20 3.90  21 3.95  16 3.96
  11  0.886  0.129  0.371-  48 2.61  34 2.62  53 2.65  44 2.65  39 2.67  56 2.68  24 3.82  15 3.82
                            13 3.84  19 3.96  22 4.00  16 4.00
  12  0.122  0.364  0.878-  43 2.61  37 2.62  50 2.65  42 2.65  35 2.68  57 2.68  24 3.82  14 3.82
                            13 3.84  17 3.95  18 4.01  21 4.01
  13  0.875  0.375  0.125-  29 2.65  44 2.65  32 2.65  53 2.65  42 2.65  50 2.65  21 3.84  18 3.84
                            22 3.84  12 3.84  16 3.84  11 3.84
  14  0.375  0.127  0.878-  55 2.62  57 2.62  43 2.63  27 2.63  40 2.72  33 2.73  16 3.82  12 3.82
                            10 3.89  17 3.89  23 3.94  24 3.95  25 3.98
  15  0.122  0.875  0.372-  47 2.62  56 2.62  48 2.63  30 2.63  28 2.73  52 2.73  11 3.82  21 3.82
                            19 3.89  10 3.90  24 3.94  25 3.94  20 3.94
  16  0.629  0.129  0.114-  27 2.61  34 2.62  53 2.65  32 2.65  55 2.67  38 2.68  14 3.82  23 3.82
                            13 3.84  10 3.96  22 4.00  11 4.00
  17  0.375  0.373  0.625-  26 2.64  49 2.64  57 2.64  35 2.64  33 2.72  51 2.74  14 3.89  24 3.89
                             9 3.90  20 3.90  12 3.95  22 3.96
  18  0.864  0.621  0.879-  46 2.61  37 2.62  29 2.65  50 2.65  54 2.68  31 2.68  23 3.82   9 3.82
                            13 3.84  19 3.95  21 4.01  12 4.01
  19  0.875  0.874  0.625-  54 2.64  56 2.64  39 2.64  31 2.64  28 2.72  45 2.74  24 3.89  15 3.89
                             9 3.90  23 3.90  18 3.95  11 3.96
  20  0.375  0.622  0.373-  36 2.62  26 2.62  30 2.62  41 2.63  51 2.73  52 2.74  22 3.82  21 3.83
                            10 3.90  17 3.90  25 3.91   9 3.94  15 3.94
  21  0.121  0.621  0.136-  30 2.61  37 2.62  29 2.65  42 2.65  36 2.68  47 2.68  15 3.82  20 3.83
                            13 3.84  10 3.95  18 4.01  12 4.01
  22  0.629  0.385  0.371-  41 2.61  34 2.62  44 2.65  32 2.65  49 2.68  26 2.68  20 3.82   9 3.82
                            13 3.84  17 3.96  11 4.00  16 4.00
  23  0.628  0.875  0.878-  31 2.62  38 2.62  27 2.63  46 2.63  40 2.73  45 2.73  16 3.82  18 3.82
                            10 3.89  19 3.90  14 3.94  25 3.94   9 3.94
  24  0.122  0.127  0.625-  39 2.62  35 2.62  43 2.63  48 2.63  28 2.72  33 2.73  11 3.82  12 3.82
                            19 3.89  17 3.89  15 3.94  14 3.95  25 3.98
  25  0.376  0.872  0.624-  51 2.76  45 2.77  52 2.77  33 2.81  40 2.81  28 2.81   7 2.86   4 2.87
                             9 3.91  20 3.91  15 3.94  23 3.94  24 3.98  14 3.98
  26  0.387  0.385  0.386-   6 2.58  20 2.62  17 2.64  22 2.68
  27  0.613  0.113  0.879-   5 2.59  16 2.61  23 2.63  14 2.63
  28  0.122  0.880  0.620-   7 2.66  19 2.72  24 2.72  15 2.73  25 2.81
  29  0.882  0.615  0.118-   8 2.55  13 2.65  21 2.65  18 2.65
  30  0.137  0.637  0.371-   2 2.59  21 2.61  20 2.62  15 2.63
  31  0.864  0.864  0.864-   1 2.58  23 2.62  19 2.64  18 2.68
  32  0.635  0.369  0.131-   3 2.54  13 2.65  22 2.65  16 2.65
  33  0.369  0.126  0.631-   4 2.65  17 2.72  24 2.73  14 2.73  25 2.81
  34  0.650  0.150  0.350-   4 2.38  22 2.62  16 2.62  11 2.62
  35  0.136  0.364  0.636-   2 2.58  24 2.62  17 2.64  12 2.68
  36  0.364  0.636  0.136-   3 2.58  20 2.62  10 2.64  21 2.68
  37  0.101  0.600  0.899-   7 2.38  12 2.62  18 2.62  21 2.62
  38  0.614  0.886  0.115-   8 2.58  23 2.62  10 2.64  16 2.68
  39  0.885  0.113  0.613-   5 2.58  24 2.62  19 2.64  11 2.67
  40  0.380  0.880  0.878-   7 2.66  10 2.72  14 2.72  23 2.73  25 2.81
  41  0.613  0.621  0.387-   8 2.59  22 2.61  20 2.63   9 2.63
  42  0.115  0.382  0.118-   6 2.55  13 2.65  12 2.65  21 2.65
  43  0.137  0.129  0.863-   1 2.59  12 2.61  24 2.63  14 2.63
  44  0.869  0.369  0.365-   2 2.54  13 2.65  22 2.65  11 2.65
  45  0.627  0.870  0.630-   4 2.68  23 2.73   9 2.74  19 2.74  25 2.77
  46  0.629  0.637  0.863-   3 2.59  18 2.61   9 2.62  23 2.63
  47  0.136  0.864  0.136-   1 2.58  15 2.62  10 2.64  21 2.68
  48  0.121  0.113  0.387-   6 2.59  11 2.61  15 2.63  24 2.63
  49  0.614  0.385  0.613-   5 2.58   9 2.62  17 2.64  22 2.68
  50  0.882  0.382  0.885-   5 2.55  13 2.65  12 2.65  18 2.65
  51  0.380  0.622  0.620-   7 2.70  20 2.73   9 2.73  17 2.74  25 2.76
  52  0.370  0.870  0.373-   4 2.68  15 2.73  20 2.74  10 2.74  25 2.77
  53  0.869  0.135  0.131-   1 2.54  13 2.65  16 2.65  11 2.65
  54  0.864  0.636  0.636-   2 2.58   9 2.62  19 2.64  18 2.68
  55  0.387  0.113  0.115-   6 2.58  14 2.62  10 2.64  16 2.67
  56  0.885  0.886  0.386-   8 2.58  15 2.62  19 2.64  11 2.68
  57  0.364  0.364  0.864-   3 2.58  14 2.62  17 2.64  12 2.68
 
  LATTYP: Found a simple cubic cell.
 ALAT       =    11.0223536917
  
  Lattice vectors:
  
 A1 = (  11.0223536917,   0.0000000000,   0.0000000000)
 A2 = (   0.0000000000,  11.0223536917,   0.0000000000)
 A3 = (   0.0000000000,   0.0000000000,  11.0223536917)


Analysis of symmetry for initial positions (statically):
=====================================================================
 Subroutine PRICEL returns:
 Original cell was already a primitive cell.
 

 Routine SETGRP: Setting up the symmetry group for a 
 simple cubic supercell.


 Subroutine GETGRP returns: Found  1 space group operations
 (whereof  1 operations were pure point group operations)
 out of a pool of 48 trial point group operations.


The static configuration has the point symmetry C_1 .


Analysis of symmetry for dynamics (positions and initial velocities):
=====================================================================
 Subroutine PRICEL returns:
 Original cell was already a primitive cell.
 

 Routine SETGRP: Setting up the symmetry group for a 
 simple cubic supercell.


 Subroutine GETGRP returns: Found  1 space group operations
 (whereof  1 operations were pure point group operations)
 out of a pool of 48 trial point group operations.


The dynamic configuration has the point symmetry C_1 .
 
 
 KPOINTS: Automatic mesh                          

Automatic generation of k-mesh.
Space group operators:
 irot       det(A)        alpha          n_x          n_y          n_z        tau_x        tau_y        tau_z
    1     1.000000     0.000001     1.000000     0.000000     0.000000     0.000000     0.000000     0.000000
 
 Subroutine IBZKPT returns following result:
 ===========================================
 
 Found     14 irreducible k-points:
 
 Following reciprocal coordinates:
            Coordinates               Weight
  0.000000  0.000000  0.000000      1.000000
  0.333333  0.000000  0.000000      2.000000
  0.000000  0.333333  0.000000      2.000000
  0.333333  0.333333  0.000000      2.000000
 -0.333333  0.333333  0.000000      2.000000
  0.000000  0.000000  0.333333      2.000000
  0.333333  0.000000  0.333333      2.000000
 -0.333333  0.000000  0.333333      2.000000
  0.000000  0.333333  0.333333      2.000000
  0.333333  0.333333  0.333333      2.000000
 -0.333333  0.333333  0.333333      2.000000
  0.000000 -0.333333  0.333333      2.000000
  0.333333 -0.333333  0.333333      2.000000
 -0.333333 -0.333333  0.333333      2.000000
 
 Following cartesian coordinates:
            Coordinates               Weight
  0.000000  0.000000  0.000000      1.000000
  0.030242  0.000000  0.000000      2.000000
  0.000000  0.030242  0.000000      2.000000
  0.030242  0.030242  0.000000      2.000000
 -0.030242  0.030242  0.000000      2.000000
  0.000000  0.000000  0.030242      2.000000
  0.030242  0.000000  0.030242      2.000000
 -0.030242  0.000000  0.030242      2.000000
  0.000000  0.030242  0.030242      2.000000
  0.030242  0.030242  0.030242      2.000000
 -0.030242  0.030242  0.030242      2.000000
  0.000000 -0.030242  0.030242      2.000000
  0.030242 -0.030242  0.030242      2.000000
 -0.030242 -0.030242  0.030242      2.000000
 
 TETIRR: Found     78 inequivalent tetrahedra from      162


--------------------------------------------------------------------------------------------------------




 Dimension of arrays:
   k-points           NKPTS =     14   k-points in BZ     NKDIM =     14   number of bands    NBANDS=    304
   number of dos      NEDOS =   1601   number of ions     NIONS =     57
   non local maximal  LDIM  =      6   non local SUM 2l+1 LMDIM =     18
   total plane-waves  NPLWV = 729000
   max r-space proj   IRMAX =      1   max aug-charges    IRDMAX=  23711
   dimension x,y,z NGX =    90 NGY =   90 NGZ =   90
   dimension x,y,z NGXF=   180 NGYF=  180 NGZF=  180
   support grid    NGXF=   180 NGYF=  180 NGZF=  180
   ions per type =               8  17  32
 NGX,Y,Z   is equivalent  to a cutoff of  13.57, 13.57, 13.57 a.u.
 NGXF,Y,Z  is equivalent  to a cutoff of  27.15, 27.15, 27.15 a.u.


 I would recommend the setting:
   dimension x,y,z NGX =    88 NGY =   88 NGZ =   88
 SYSTEM =  CdIn2S4                                 
 POSCAR =  Cd In2 S4                               

 Startparameter for this run:
   NWRITE =      2    write-flag & timer
   PREC   = accura    normal or accurate (medium, high low for compatibility)
   ISTART =      0    job   : 0-new  1-cont  2-samecut
   ICHARG =      2    charge: 1-file 2-atom 10-const
   ISPIN  =      1    spin polarized calculation?
   LNONCOLLINEAR =      F non collinear calculations
   LSORBIT =      F    spin-orbit coupling
   INIWAV =      1    electr: 0-lowe 1-rand  2-diag
   LASPH  =      F    aspherical Exc in radial PAW
   METAGGA=      F    non-selfconsistent MetaGGA calc.

 Electronic Relaxation 1
   ENCUT  =  600.0 eV  44.10 Ry    6.64 a.u.  22.01 22.01 22.01*2*pi/ulx,y,z
   ENINI  =  600.0     initial cutoff
   ENAUG  =  456.1 eV  augmentation charge cutoff
   NELM   =     60;   NELMIN=  2; NELMDL= -5     # of ELM steps 
   EDIFF  = 0.1E-03   stopping-criterion for ELM
   LREAL  =      F    real-space projection
   NLSPLINE    = F    spline interpolate recip. space projectors
   LCOMPAT=      F    compatible to vasp.4.4
   GGA_COMPAT  = T    GGA compatible to vasp.4.4-vasp.4.6
   LMAXPAW     = -100 max onsite density
   LMAXMIX     =    2 max onsite mixed and CHGCAR
   VOSKOWN=      0    Vosko Wilk Nusair interpolation
   ROPT   =    0.00000   0.00000   0.00000
 Ionic relaxation
   EDIFFG = 0.1E-02   stopping-criterion for IOM
   NSW    =      0    number of steps for IOM
   NBLOCK =      1;   KBLOCK =      1    inner block; outer block 
   IBRION =     -1    ionic relax: 0-MD 1-quasi-New 2-CG
   NFREE  =      1    steps in history (QN), initial steepest desc. (CG)
   ISIF   =      0    stress and relaxation
   IWAVPR =     10    prediction:  0-non 1-charg 2-wave 3-comb
   ISYM   =      2    0-nonsym 1-usesym 2-fastsym
   LCORR  =      T    Harris-Foulkes like correction to forces

   POTIM  = 0.5000    time-step for ionic-motion
   TEIN   =    0.0    initial temperature
   TEBEG  =    0.0;   TEEND  =   0.0 temperature during run
   SMASS  =  -3.00    Nose mass-parameter (am)
   estimated Nose-frequenzy (Omega)   =  0.10E-29 period in steps =****** mass=  -0.278E-26a.u.
   SCALEE = 1.0000    scale energy and forces
   NPACO  =    256;   APACO  = 16.0  distance and # of slots for P.C.
   PSTRESS=    0.0 pullay stress

  Mass of Ions in am
   POMASS = 112.41114.82 32.07
  Ionic Valenz
   ZVAL   =  12.00 13.00  6.00
  Atomic Wigner-Seitz radii
   RWIGS  =  -1.00 -1.00 -1.00
  virtual crystal weights 
   VCA    =   1.00  1.00  1.00
   NELECT =     507.0000    total number of electrons
   NUPDOWN=      -1.0000    fix difference up-down

 DOS related values:
   EMIN   =  -5.00;   EMAX   = 10.00  energy-range for DOS
   EFERMI =   0.00
   ISMEAR =    -4;   SIGMA  =   0.20  broadening in eV -4-tet -1-fermi 0-gaus

 Electronic relaxation 2 (details)
   IALGO  =     38    algorithm
   LDIAG  =      T    sub-space diagonalisation (order eigenvalues)
   LSUBROT=      F    optimize rotation matrix (better conditioning)
   TURBO    =      0    0=normal 1=particle mesh
   IRESTART =      0    0=no restart 2=restart with 2 vectors
   NREBOOT  =      0    no. of reboots
   NMIN     =      0    reboot dimension
   EREF     =   0.00    reference energy to select bands
   IMIX   =      4    mixing-type and parameters
     AMIX     =   0.40;   BMIX     =  1.00
     AMIX_MAG =   1.60;   BMIX_MAG =  1.00
     AMIN     =   0.10
     WC   =   100.;   INIMIX=   1;  MIXPRE=   1;  MAXMIX= -45

 Intra band minimization:
   WEIMIN = 0.0000     energy-eigenvalue tresh-hold
   EBREAK =  0.82E-07  absolut break condition
   DEPER  =   0.30     relativ break condition  

   TIME   =   0.40     timestep for ELM

  volume/ion in A,a.u.               =      23.49       158.54
  Fermi-wavevector in a.u.,A,eV,Ry     =   1.184322  2.238044 19.083786  1.402619
  Thomas-Fermi vector in A             =   2.320539
 
 Write flags
   LWAVE  =      T    write WAVECAR
   LCHARG =      T    write CHGCAR
   LVTOT  =      F    write LOCPOT, total local potential
   LVHAR  =      F    write LOCPOT, Hartree potential only
   LELF   =      F    write electronic localiz. function (ELF)
   LORBIT =     11    0 simple, 1 ext, 2 COOP (PROOUT)


 Dipole corrections
   LMONO  =      F    monopole corrections only (constant potential shift)
   LDIPOL =      F    correct potential (dipole corrections)
   IDIPOL =      0    1-x, 2-y, 3-z, 4-all directions 
   EPSILON=  1.0000000 bulk dielectric constant

 Exchange correlation treatment:
   GGA     =    --    GGA type
   LEXCH   =     8    internal setting for exchange type
   VOSKOWN=      0    Vosko Wilk Nusair interpolation
   LHFCALC =     F    Hartree Fock is set to
   LHFONE  =     F    Hartree Fock one center treatment
   AEXX    =    0.0000 exact exchange contribution

 Linear response parameters
   LEPSILON=     F    determine dielectric tensor
   LRPA    =     F    only Hartree local field effects (RPA)
   LNABLA  =     F    use nabla operator in PAW spheres
   LVEL    =     F    velocity operator in full k-point grid
   LINTERFAST=   F  fast interpolation
   KINTER  =     0    interpolate to denser k-point grid
   CSHIFT  =0.1000    complex shift for real part using Kramers Kronig
   OMEGAMAX=  -1.0    maximum frequency
   DEG_THRESHOLD= 0.2000000E-02 threshold for treating states as degnerate
   RTIME   =    0.100 relaxation time in fs

 Orbital magnetization related:
   ORBITALMAG=     F  switch on orbital magnetization
   LCHIMAG   =     F  perturbation theory with respect to B field
   DQ        =  0.001000  dq finite difference perturbation B field



--------------------------------------------------------------------------------------------------------


 Static calculation
 charge density and potential will be updated during run
 non-spin polarized calculation
 Variant of blocked Davidson
 Davidson routine will perform the subspace rotation
 perform sub-space diagonalisation
    after iterative eigenvector-optimisation
 modified Broyden-mixing scheme, WC =      100.0
 initial mixing is a Kerker type mixing with AMIX =  0.4000 and BMIX =      1.0000
 Hartree-type preconditioning will be used
 using additional bands           50
 reciprocal scheme for non local part
 use partial core corrections
 calculate Harris-corrections to forces 
   (improved forces if not selfconsistent)
 use gradient corrections 
 use of overlap-Matrix (Vanderbilt PP)
 Fermi weights with tetrahedron method witout Bloechl corrections


--------------------------------------------------------------------------------------------------------


  energy-cutoff  :      600.00
  volume of cell :     1339.13
      direct lattice vectors                 reciprocal lattice vectors
    11.022353692  0.000000000  0.000000000     0.090724724  0.000000000  0.000000000
     0.000000000 11.022353692  0.000000000     0.000000000  0.090724724  0.000000000
     0.000000000  0.000000000 11.022353692     0.000000000  0.000000000  0.090724724

  length of vectors
    11.022353692 11.022353692 11.022353692     0.090724724  0.090724724  0.090724724


 
 k-points in units of 2pi/SCALE and weight: Automatic mesh                          
   0.00000000  0.00000000  0.00000000       0.037
   0.03024157  0.00000000  0.00000000       0.074
   0.00000000  0.03024157  0.00000000       0.074
   0.03024157  0.03024157  0.00000000       0.074
  -0.03024157  0.03024157  0.00000000       0.074
   0.00000000  0.00000000  0.03024157       0.074
   0.03024157  0.00000000  0.03024157       0.074
  -0.03024157  0.00000000  0.03024157       0.074
   0.00000000  0.03024157  0.03024157       0.074
   0.03024157  0.03024157  0.03024157       0.074
  -0.03024157  0.03024157  0.03024157       0.074
   0.00000000 -0.03024157  0.03024157       0.074
   0.03024157 -0.03024157  0.03024157       0.074
  -0.03024157 -0.03024157  0.03024157       0.074
 
 k-points in reciprocal lattice and weights: Automatic mesh                          
   0.00000000  0.00000000  0.00000000       0.037
   0.33333333  0.00000000  0.00000000       0.074
   0.00000000  0.33333333  0.00000000       0.074
   0.33333333  0.33333333  0.00000000       0.074
  -0.33333333  0.33333333  0.00000000       0.074
   0.00000000  0.00000000  0.33333333       0.074
   0.33333333  0.00000000  0.33333333       0.074
  -0.33333333  0.00000000  0.33333333       0.074
   0.00000000  0.33333333  0.33333333       0.074
   0.33333333  0.33333333  0.33333333       0.074
  -0.33333333  0.33333333  0.33333333       0.074
   0.00000000 -0.33333333  0.33333333       0.074
   0.33333333 -0.33333333  0.33333333       0.074
  -0.33333333 -0.33333333  0.33333333       0.074
 
 position of ions in fractional coordinates (direct lattice) 
   0.99962568  0.99736472  0.00037121
   0.99981565  0.49951322  0.50241259
   0.49759129  0.49952481  0.00019218
   0.52416414  0.02734293  0.47583346
   0.75050297  0.25003852  0.74722442
   0.25277282  0.25003841  0.24949047
   0.22387903  0.72725350  0.77610360
   0.75035306  0.75246435  0.24964685
   0.62742987  0.62163068  0.62510984
   0.37512848  0.87433342  0.12468227
   0.88563262  0.12858187  0.37120754
   0.12153305  0.36433801  0.87846475
   0.87518789  0.37505403  0.12480860
   0.37483656  0.12733573  0.87837769
   0.12210496  0.87495524  0.37224126
   0.62879590  0.12857870  0.11436706
   0.37492825  0.37340988  0.62507221
   0.86449385  0.62138184  0.87853346
   0.87530646  0.87433304  0.62486632
   0.37489058  0.62163069  0.37257040
   0.12146048  0.62138158  0.13550601
   0.62887207  0.38543229  0.37112680
   0.62775929  0.87495275  0.87790056
   0.12162793  0.12732830  0.62517096
   0.37645442  0.87209101  0.62354666
   0.38653372  0.38456900  0.38633484
   0.61268730  0.11267982  0.87896851
   0.12201667  0.88034575  0.61958115
   0.88173536  0.61486073  0.11826883
   0.13735098  0.63710973  0.37120850
   0.86438335  0.86411147  0.86415324
   0.63533078  0.36871015  0.13115112
   0.36906792  0.12638144  0.63093351
   0.64988029  0.14984145  0.35011912
   0.13582049  0.36429523  0.63587461
   0.36413005  0.63577269  0.13564168
   0.10058495  0.60033893  0.89941315
   0.61407063  0.88619958  0.11484255
   0.88474776  0.11333803  0.61332859
   0.38042503  0.88032445  0.87798155
   0.61267790  0.62079543  0.38731376
   0.11519739  0.38154805  0.11829183
   0.13714406  0.12870509  0.86286327
   0.86884379  0.36871548  0.36466278
   0.62723685  0.86973745  0.63019130
   0.62878478  0.63711265  0.86264937
   0.13584872  0.86411016  0.13562175
   0.12103159  0.11268412  0.38731316
   0.61366732  0.38457397  0.61345881
   0.88170728  0.38155166  0.88479610
   0.38002135  0.62177534  0.61997486
   0.36983226  0.86974150  0.37276246
   0.86877069  0.13519034  0.13123046
   0.86436749  0.63574637  0.63587303
   0.38667494  0.11333484  0.11525889
   0.88515762  0.88620672  0.38593128
   0.36412341  0.36430285  0.86417879
 
 position of ions in cartesian coordinates  (Angst):
  11.01822784 10.99330667  0.00409161
  11.02032174  5.50581140  5.53776932
   5.48462716  5.50593916  0.00211826
   5.77752256  0.30138341  5.24480475
   8.27230916  2.75601304  8.23617180
   2.78615141  2.75601181  2.74997222
   2.46767385  8.01604530  8.55448834
   8.27065686  8.29392818  2.75169586
   6.91575397  6.85183323  6.89018181
   4.13479880  9.63721218  1.37429210
   9.76175596  1.41727487  4.09158076
   1.33958025  4.01586242  9.68274914
   9.64663045  4.13397822  1.37568458
   4.13158120  1.40353941  9.68178962
   1.34588403  9.64406614  4.10297484
   6.93081077  1.41723989  1.26059414
   4.13259182  4.11585580  6.88976700
   9.52875698  6.84909036  9.68350655
   9.64793738  9.63720803  6.88749760
   4.13217657  6.85183334  4.10660268
   1.33878034  6.84908758  1.49359515
   6.93165042  4.24837102  4.09069088
   6.91938488  9.64403872  9.67653053
   1.34062611  1.40345753  6.89085545
   4.14941373  9.61249552  6.87295178
   4.26051141  4.23885557  4.25831920
   6.75325616  1.24199687  9.68830184
   1.34491092  9.70348221  6.82924252
   9.71879901  6.77721243  1.30360086
   1.51393103  7.02244878  4.09159137
   9.52753903  9.52454220  9.52500260
   7.00284058  4.06405368  1.44559404
   4.06799712  1.39302096  6.95437235
   7.16321044  1.65160541  3.85913673
   1.49706146  4.01539084  7.00883481
   4.01357019  7.00771147  1.49509058
   1.10868291  6.61714806  9.91364988
   6.76850369  9.76800522  1.26583518
   9.75200274  1.24925183  6.76032464
   4.19317920  9.70324749  9.67742313
   6.75315247  6.84262677  4.26910930
   1.26974635  4.20555758  1.30385442
   1.51165033  1.41863305  9.51078412
   9.57670352  4.06411247  4.01944210
   6.91362636  9.58655382  6.94619140
   6.93068828  7.02248099  9.50842642
   1.49737262  9.52452780  1.49487089
   1.33405296  1.24204419  4.26910263
   6.76405823  4.23891033  6.76175998
   9.71848946  4.20559739  9.75253558
   4.18872968  6.85342771  6.83358217
   4.07642196  9.58659843  4.10871966
   9.57589780  1.49011576  1.44646851
   9.52736421  7.00742133  7.00881743
   4.26206797  1.24921671  1.27042429
   9.75652039  9.76808392  4.25387102
   4.01349697  4.01547481  9.52528431
 


--------------------------------------------------------------------------------------------------------


 k-point  1 :   0.0000 0.0000 0.0000  plane waves:   44473
 k-point  2 :   0.3333 0.0000 0.0000  plane waves:   44660
 k-point  3 :   0.0000 0.3333 0.0000  plane waves:   44660
 k-point  4 :   0.3333 0.3333 0.0000  plane waves:   44717
 k-point  5 :  -0.3333 0.3333 0.0000  plane waves:   44717
 k-point  6 :   0.0000 0.0000 0.3333  plane waves:   44660
 k-point  7 :   0.3333 0.0000 0.3333  plane waves:   44717
 k-point  8 :  -0.3333 0.0000 0.3333  plane waves:   44717
 k-point  9 :   0.0000 0.3333 0.3333  plane waves:   44717
 k-point 10 :   0.3333 0.3333 0.3333  plane waves:   44681
 k-point 11 :  -0.3333 0.3333 0.3333  plane waves:   44681
 k-point 12 :   0.0000-0.3333 0.3333  plane waves:   44717
 k-point 13 :   0.3333-0.3333 0.3333  plane waves:   44681
 k-point 14 :  -0.3333-0.3333 0.3333  plane waves:   44681

 maximum and minimum number of plane-waves per node :     11234    11099

 maximum number of plane-waves:     44717
 maximum index in each direction: 
   IXMAX=   22   IYMAX=   22   IZMAX=   22
   IXMIN=  -22   IYMIN=  -22   IZMIN=  -22

 NGX is ok and might be reduce to  90
 NGY is ok and might be reduce to  90
 NGZ is ok and might be reduce to  90

 parallel 3D FFT for wavefunctions:
    minimum data exchange during FFTs selected (reduces bandwidth)
 parallel 3D FFT for charge:
    minimum data exchange during FFTs selected (reduces bandwidth)


 total amount of memory used by VASP on root node   352987. kBytes
========================================================================

   base      :      30000. kBytes
   nonl-proj :      77896. kBytes
   fftplans  :      18482. kBytes
   grid      :      32575. kBytes
   one-center:        233. kBytes
   wavefun   :     193801. kBytes
 
     INWAV:  cpu time    0.00: real time    0.00
 Broyden mixing: mesh for mixing (old mesh)
   NGX = 45   NGY = 45   NGZ = 45
  (NGX  =180   NGY  =180   NGZ  =180)
  gives a total of  91125 points

 initial charge density was supplied:
 charge density of overlapping atoms calculated
 number of electron     509.0000000 magnetization 
 keeping initial charge density in first step


--------------------------------------------------------------------------------------------------------


 Maximum index for augmentation-charges         2025 (set IRDMAX)


--------------------------------------------------------------------------------------------------------


 First call to EWALD:  gamma=   0.161
 Maximum number of real-space cells 3x 3x 3
 Maximum number of reciprocal cells 3x 3x 3

 FEWALD executed in parallel
    FEWALD:  cpu time    0.01: real time    0.01


----------------------------------------- Iteration    1(   1)  ---------------------------------------


    POTLOK:  cpu time    0.36: real time    0.38
    SETDIJ:  cpu time    0.02: real time    0.02
     EDDAV:  cpu time  115.20: real time  120.45
 BZINTS: Fermi energy: 34.223708;507.000000 electrons
         Band energy:4825.379924;  BLOECHL correction:  0.000000
       DOS:  cpu time    3.33: real time    3.34
    --------------------------------------------
      LOOP:  cpu time  118.91: real time  124.20

 eigenvalue-minimisations  :  8520
 total energy-change (2. order) : 0.6740624E+04  (-0.2285194E+05)
 number of electron     509.0000000 magnetization 
 augmentation part      509.0000000 magnetization 

 Free energy of the ion-electron system (eV)
  ---------------------------------------------------
  alpha Z        PSCENC =      1326.31949012
  Ewald energy   TEWEN  =    -33243.08508828
  -Hartree energ DENC   =    -13855.22745414
  -exchange      EXHF   =         0.00000000
  -V(xc)+E(xc)   XCENC  =      1146.85372767
  PAW double counting   =     40008.96445583   -39478.40375335
  entropy T*S    EENTRO =         0.00000000
  eigenvalues    EBANDS =      4825.37992402
  atomic energy  EATOM  =     46009.82289571
  ---------------------------------------------------
  free energy    TOTEN  =      6740.62419758 eV

  energy without entropy =     6740.62419758  energy(sigma->0) =     6740.62419758


--------------------------------------------------------------------------------------------------------




----------------------------------------- Iteration    1(   2)  ---------------------------------------


     EDDAV:  cpu time  115.18: real time  120.44
 BZINTS: Fermi energy: 13.143468;507.000000 electrons
         Band energy:-726.170847;  BLOECHL correction:  0.000000
       DOS:  cpu time    0.49: real time    0.49
    --------------------------------------------
      LOOP:  cpu time  115.70: real time  120.99

 eigenvalue-minimisations  :  8512
 total energy-change (2. order) :-0.5551551E+04  (-0.5411486E+04)
 number of electron     509.0000000 magnetization 
 augmentation part      509.0000000 magnetization 

 Free energy of the ion-electron system (eV)
  ---------------------------------------------------
  alpha Z        PSCENC =      1326.31949012
  Ewald energy   TEWEN  =    -33243.08508828
  -Hartree energ DENC   =    -13855.22745414
  -exchange      EXHF   =         0.00000000
  -V(xc)+E(xc)   XCENC  =      1146.85372767
  PAW double counting   =     40008.96445583   -39478.40375335
  entropy T*S    EENTRO =         0.00000000
  eigenvalues    EBANDS =      -726.17084713
  atomic energy  EATOM  =     46009.82289571
  ---------------------------------------------------
  free energy    TOTEN  =      1189.07342643 eV

  energy without entropy =     1189.07342643  energy(sigma->0) =     1189.07342643


--------------------------------------------------------------------------------------------------------




----------------------------------------- Iteration    1(   3)  ---------------------------------------


     EDDAV:  cpu time  122.93: real time  128.50
 BZINTS: Fermi energy:  5.818229;507.000000 electrons
         Band energy:***********;  BLOECHL correction:  0.000000
       DOS:  cpu time    0.05: real time    0.05
    --------------------------------------------
      LOOP:  cpu time  122.99: real time  128.57

 eigenvalue-minimisations  :  9304
 total energy-change (2. order) :-0.1253845E+04  (-0.1170538E+04)
 number of electron     509.0000000 magnetization 
 augmentation part      509.0000000 magnetization 

 Free energy of the ion-electron system (eV)
  ---------------------------------------------------
  alpha Z        PSCENC =      1326.31949012
  Ewald energy   TEWEN  =    -33243.08508828
  -Hartree energ DENC   =    -13855.22745414
  -exchange      EXHF   =         0.00000000
  -V(xc)+E(xc)   XCENC  =      1146.85372767
  PAW double counting   =     40008.96445583   -39478.40375335
  entropy T*S    EENTRO =         0.00000000
  eigenvalues    EBANDS =     -1980.01550529
  atomic energy  EATOM  =     46009.82289571
  ---------------------------------------------------
  free energy    TOTEN  =       -64.77123174 eV

  energy without entropy =      -64.77123174  energy(sigma->0) =      -64.77123174


--------------------------------------------------------------------------------------------------------




----------------------------------------- Iteration    1(   4)  ---------------------------------------


     EDDAV:  cpu time  141.71: real time  148.09
 BZINTS: Fermi energy:  4.586286;507.000000 electrons
         Band energy:***********;  BLOECHL correction:  0.000000
       DOS:  cpu time    0.06: real time    0.05
    --------------------------------------------
      LOOP:  cpu time  141.77: real time  148.20

 eigenvalue-minimisations  : 11192
 total energy-change (2. order) :-0.1656752E+03  (-0.1620228E+03)
 number of electron     509.0000000 magnetization 
 augmentation part      509.0000000 magnetization 

 Free energy of the ion-electron system (eV)
  ---------------------------------------------------
  alpha Z        PSCENC =      1326.31949012
  Ewald energy   TEWEN  =    -33243.08508828
  -Hartree energ DENC   =    -13855.22745414
  -exchange      EXHF   =         0.00000000
  -V(xc)+E(xc)   XCENC  =      1146.85372767
  PAW double counting   =     40008.96445583   -39478.40375335
  entropy T*S    EENTRO =         0.00000000
  eigenvalues    EBANDS =     -2145.69068763
  atomic energy  EATOM  =     46009.82289571
  ---------------------------------------------------
  free energy    TOTEN  =      -230.44641408 eV

  energy without entropy =     -230.44641408  energy(sigma->0) =     -230.44641408


--------------------------------------------------------------------------------------------------------




----------------------------------------- Iteration    1(   5)  ---------------------------------------


     EDDAV:  cpu time  131.48: real time  137.42
 BZINTS: Fermi energy:  4.482886;507.000000 electrons
         Band energy:***********;  BLOECHL correction:  0.000000
       DOS:  cpu time    0.05: real time    0.05
    CHARGE:  cpu time    4.52: real time    4.54
    MIXING:  cpu time    0.00: real time    0.01
    --------------------------------------------
      LOOP:  cpu time  136.06: real time  142.06

 eigenvalue-minimisations  : 10168
 total energy-change (2. order) :-0.6138691E+01  (-0.6060889E+01)
 number of electron     506.9999992 magnetization 
 augmentation part      139.1291210 magnetization 

 Broyden mixing:
  rms(total) = 0.40763E+01    rms(broyden)= 0.40759E+01
  rms(prec ) = 0.44248E+01
  weight for this iteration     100.00

 Free energy of the ion-electron system (eV)
  ---------------------------------------------------
  alpha Z        PSCENC =      1326.31949012
  Ewald energy   TEWEN  =    -33243.08508828
  -Hartree energ DENC   =    -13855.22745414
  -exchange      EXHF   =         0.00000000
  -V(xc)+E(xc)   XCENC  =      1146.85372767
  PAW double counting   =     40008.96445583   -39478.40375335
  entropy T*S    EENTRO =         0.00000000
  eigenvalues    EBANDS =     -2151.82937877
  atomic energy  EATOM  =     46009.82289571
  ---------------------------------------------------
  free energy    TOTEN  =      -236.58510522 eV

  energy without entropy =     -236.58510522  energy(sigma->0) =     -236.58510522


--------------------------------------------------------------------------------------------------------




----------------------------------------- Iteration    1(   6)  ---------------------------------------


    POTLOK:  cpu time    0.36: real time    0.37
    SETDIJ:  cpu time    0.02: real time    0.02
     EDDAV:  cpu time  141.68: real time  148.00
 BZINTS: Fermi energy:  4.565949;507.000000 electrons
         Band energy:***********;  BLOECHL correction:  0.000000
       DOS:  cpu time    0.06: real time    0.05
    CHARGE:  cpu time    4.54: real time    4.56
    MIXING:  cpu time    0.01: real time    0.01
    --------------------------------------------
      LOOP:  cpu time  146.67: real time  153.06

 eigenvalue-minimisations  : 11192
 total energy-change (2. order) : 0.1355446E+02  (-0.2439760E+01)
 number of electron     506.9999993 magnetization 
 augmentation part      140.3958465 magnetization 

 Broyden mixing:
  rms(total) = 0.26147E+01    rms(broyden)= 0.26147E+01
  rms(prec ) = 0.26963E+01
  weight for this iteration     100.00

 eigenvalues of (default mixing * dielectric matrix)
  average eigenvalue GAMMA=   1.7669
  1.7669

 Free energy of the ion-electron system (eV)
  ---------------------------------------------------
  alpha Z        PSCENC =      1326.31949012
  Ewald energy   TEWEN  =    -33243.08508828
  -Hartree energ DENC   =    -13776.48614386
  -exchange      EXHF   =         0.00000000
  -V(xc)+E(xc)   XCENC  =      1145.21849920
  PAW double counting   =     48641.99153158   -48079.52890645
  entropy T*S    EENTRO =         0.00000000
  eigenvalues    EBANDS =     -2247.28292354
  atomic energy  EATOM  =     46009.82289571
  ---------------------------------------------------
  free energy    TOTEN  =      -223.03064552 eV

  energy without entropy =     -223.03064552  energy(sigma->0) =     -223.03064552


--------------------------------------------------------------------------------------------------------




----------------------------------------- Iteration    1(   7)  ---------------------------------------


    POTLOK:  cpu time    0.36: real time    0.38
    SETDIJ:  cpu time    0.02: real time    0.02
     EDDAV:  cpu time  145.26: real time  151.73
 BZINTS: Fermi energy:  4.682432;507.000000 electrons
         Band energy:***********;  BLOECHL correction:  0.000000
       DOS:  cpu time    0.05: real time    0.06
    CHARGE:  cpu time    4.54: real time    4.55
    MIXING:  cpu time    0.00: real time    0.01
    --------------------------------------------
      LOOP:  cpu time  150.24: real time  156.75

 eigenvalue-minimisations  : 11560
 total energy-change (2. order) : 0.6657599E-01  (-0.2173308E+01)
 number of electron     506.9999994 magnetization 
 augmentation part      141.3430567 magnetization 

 Broyden mixing:
  rms(total) = 0.94771E+00    rms(broyden)= 0.94771E+00
  rms(prec ) = 0.99152E+00
  weight for this iteration     100.00

 eigenvalues of (default mixing * dielectric matrix)
  average eigenvalue GAMMA=   1.6608
  1.2880  2.0337

 Free energy of the ion-electron system (eV)
  ---------------------------------------------------
  alpha Z        PSCENC =      1326.31949012
  Ewald energy   TEWEN  =    -33243.08508828
  -Hartree energ DENC   =    -13774.48771286
  -exchange      EXHF   =         0.00000000
  -V(xc)+E(xc)   XCENC  =      1150.09547885
  PAW double counting   =     58325.63842871   -57753.47144215
  entropy T*S    EENTRO =         0.00000000
  eigenvalues    EBANDS =     -2263.79611963
  atomic energy  EATOM  =     46009.82289571
  ---------------------------------------------------
  free energy    TOTEN  =      -222.96406953 eV

  energy without entropy =     -222.96406953  energy(sigma->0) =     -222.96406953


--------------------------------------------------------------------------------------------------------




----------------------------------------- Iteration    1(   8)  ---------------------------------------


    POTLOK:  cpu time    0.36: real time    0.37
    SETDIJ:  cpu time    0.02: real time    0.02
     EDDAV:  cpu time  142.97: real time  149.36
 BZINTS: Fermi energy:  4.666151;507.000000 electrons
         Band energy:***********;  BLOECHL correction:  0.000000
       DOS:  cpu time    0.05: real time    0.05
    CHARGE:  cpu time    4.54: real time    4.57
    MIXING:  cpu time    0.01: real time    0.01
    --------------------------------------------
      LOOP:  cpu time  147.96: real time  154.42

 eigenvalue-minimisations  : 11312
 total energy-change (2. order) : 0.1512387E+00  (-0.3641577E+00)
 number of electron     506.9999994 magnetization 
 augmentation part      140.8195644 magnetization 

 Broyden mixing:
  rms(total) = 0.41655E+00    rms(broyden)= 0.41655E+00
  rms(prec ) = 0.42890E+00
  weight for this iteration     100.00

 eigenvalues of (default mixing * dielectric matrix)
  average eigenvalue GAMMA=   1.3925
  2.1708  1.0033  1.0033

 Free energy of the ion-electron system (eV)
  ---------------------------------------------------
  alpha Z        PSCENC =      1326.31949012
  Ewald energy   TEWEN  =    -33243.08508828
  -Hartree energ DENC   =    -13799.24659890
  -exchange      EXHF   =         0.00000000
  -V(xc)+E(xc)   XCENC  =      1150.35506504
  PAW double counting   =     61608.88080220   -61044.10906628
  entropy T*S    EENTRO =         0.00000000
  eigenvalues    EBANDS =     -2231.75033042
  atomic energy  EATOM  =     46009.82289571
  ---------------------------------------------------
  free energy    TOTEN  =      -222.81283082 eV

  energy without entropy =     -222.81283082  energy(sigma->0) =     -222.81283082


--------------------------------------------------------------------------------------------------------




----------------------------------------- Iteration    1(   9)  ---------------------------------------


    POTLOK:  cpu time    0.36: real time    0.37
    SETDIJ:  cpu time    0.02: real time    0.02
     EDDAV:  cpu time  145.65: real time  152.14
 BZINTS: Fermi energy:  4.669091;507.000000 electrons
         Band energy:***********;  BLOECHL correction:  0.000000
       DOS:  cpu time    0.06: real time    0.06
    CHARGE:  cpu time    4.56: real time    4.58
    MIXING:  cpu time    0.01: real time    0.01
    --------------------------------------------
      LOOP:  cpu time  150.65: real time  157.22

 eigenvalue-minimisations  : 11592
 total energy-change (2. order) : 0.1321924E-01  (-0.2372976E-01)
 number of electron     506.9999994 magnetization 
 augmentation part      140.8939185 magnetization 

 Broyden mixing:
  rms(total) = 0.15821E+00    rms(broyden)= 0.15821E+00
  rms(prec ) = 0.16370E+00
  weight for this iteration     100.00

 eigenvalues of (default mixing * dielectric matrix)
  average eigenvalue GAMMA=   1.4310
  1.8435  1.8435  1.0186  1.0186

 Free energy of the ion-electron system (eV)
  ---------------------------------------------------
  alpha Z        PSCENC =      1326.31949012
  Ewald energy   TEWEN  =    -33243.08508828
  -Hartree energ DENC   =    -13789.82776828
  -exchange      EXHF   =         0.00000000
  -V(xc)+E(xc)   XCENC  =      1150.58377326
  PAW double counting   =     62489.73209813   -61922.44521423
  entropy T*S    EENTRO =         0.00000000
  eigenvalues    EBANDS =     -2243.89979800
  atomic energy  EATOM  =     46009.82289571
  ---------------------------------------------------
  free energy    TOTEN  =      -222.79961157 eV

  energy without entropy =     -222.79961157  energy(sigma->0) =     -222.79961157


--------------------------------------------------------------------------------------------------------




----------------------------------------- Iteration    1(  10)  ---------------------------------------


    POTLOK:  cpu time    0.36: real time    0.38
    SETDIJ:  cpu time    0.02: real time    0.02
     EDDAV:  cpu time  139.75: real time  145.97
 BZINTS: Fermi energy:  4.668753;507.000000 electrons
         Band energy:***********;  BLOECHL correction:  0.000000
       DOS:  cpu time    0.06: real time    0.06
    CHARGE:  cpu time    4.54: real time    4.56
    MIXING:  cpu time    0.00: real time    0.01
    --------------------------------------------
      LOOP:  cpu time  144.74: real time  151.03

 eigenvalue-minimisations  : 11008
 total energy-change (2. order) :-0.4304924E-02  (-0.3325378E-02)
 number of electron     506.9999994 magnetization 
 augmentation part      140.9239626 magnetization 

 Broyden mixing:
  rms(total) = 0.10556E+00    rms(broyden)= 0.10556E+00
  rms(prec ) = 0.10815E+00
  weight for this iteration     100.00

 eigenvalues of (default mixing * dielectric matrix)
  average eigenvalue GAMMA=   1.6144
  2.4997  2.4997  1.1377  1.1377  0.7974

 Free energy of the ion-electron system (eV)
  ---------------------------------------------------
  alpha Z        PSCENC =      1326.31949012
  Ewald energy   TEWEN  =    -33243.08508828
  -Hartree energ DENC   =    -13787.35577850
  -exchange      EXHF   =         0.00000000
  -V(xc)+E(xc)   XCENC  =      1150.61609187
  PAW double counting   =     62369.27695203   -61801.33183708
  entropy T*S    EENTRO =         0.00000000
  eigenvalues    EBANDS =     -2247.06664236
  atomic energy  EATOM  =     46009.82289571
  ---------------------------------------------------
  free energy    TOTEN  =      -222.80391650 eV

  energy without entropy =     -222.80391650  energy(sigma->0) =     -222.80391650


--------------------------------------------------------------------------------------------------------




----------------------------------------- Iteration    1(  11)  ---------------------------------------


    POTLOK:  cpu time    0.36: real time    0.38
    SETDIJ:  cpu time    0.02: real time    0.02
     EDDAV:  cpu time  140.18: real time  146.47
 BZINTS: Fermi energy:  4.671139;507.000000 electrons
         Band energy:***********;  BLOECHL correction:  0.000000
       DOS:  cpu time    0.06: real time    0.06
    CHARGE:  cpu time    4.56: real time    4.57
    MIXING:  cpu time    0.01: real time    0.01
    --------------------------------------------
      LOOP:  cpu time  145.19: real time  151.54

 eigenvalue-minimisations  : 11048
 total energy-change (2. order) :-0.4674916E-02  (-0.1132040E-02)
 number of electron     506.9999994 magnetization 
 augmentation part      140.8984145 magnetization 

 Broyden mixing:
  rms(total) = 0.25512E-01    rms(broyden)= 0.25512E-01
  rms(prec ) = 0.31078E-01
  weight for this iteration     100.00

 eigenvalues of (default mixing * dielectric matrix)
  average eigenvalue GAMMA=   1.4869
  2.4223  2.4223  1.1237  1.1237  0.9148  0.9148

 Free energy of the ion-electron system (eV)
  ---------------------------------------------------
  alpha Z        PSCENC =      1326.31949012
  Ewald energy   TEWEN  =    -33243.08508828
  -Hartree energ DENC   =    -13789.41635172
  -exchange      EXHF   =         0.00000000
  -V(xc)+E(xc)   XCENC  =      1150.76839336
  PAW double counting   =     62272.64175026   -61704.64753163
  entropy T*S    EENTRO =         0.00000000
  eigenvalues    EBANDS =     -2245.21214924
  atomic energy  EATOM  =     46009.82289571
  ---------------------------------------------------
  free energy    TOTEN  =      -222.80859141 eV

  energy without entropy =     -222.80859141  energy(sigma->0) =     -222.80859141


--------------------------------------------------------------------------------------------------------




----------------------------------------- Iteration    1(  12)  ---------------------------------------


    POTLOK:  cpu time    0.36: real time    0.38
    SETDIJ:  cpu time    0.02: real time    0.02
     EDDAV:  cpu time  140.20: real time  146.47
 BZINTS: Fermi energy:  4.673857;507.000000 electrons
         Band energy:***********;  BLOECHL correction:  0.000000
       DOS:  cpu time    0.06: real time    0.05
    CHARGE:  cpu time    4.54: real time    4.56
    MIXING:  cpu time    0.01: real time    0.01
    --------------------------------------------
      LOOP:  cpu time  145.19: real time  151.51

 eigenvalue-minimisations  : 11072
 total energy-change (2. order) : 0.1430863E-02  (-0.4553256E-03)
 number of electron     506.9999994 magnetization 
 augmentation part      140.9152374 magnetization 

 Broyden mixing:
  rms(total) = 0.13070E-01    rms(broyden)= 0.13070E-01
  rms(prec ) = 0.13846E-01
  weight for this iteration     100.00

 eigenvalues of (default mixing * dielectric matrix)
  average eigenvalue GAMMA=   1.5165
  2.3761  2.3761  1.4882  1.4882  1.0421  1.0421  0.8030

 Free energy of the ion-electron system (eV)
  ---------------------------------------------------
  alpha Z        PSCENC =      1326.31949012
  Ewald energy   TEWEN  =    -33243.08508828
  -Hartree energ DENC   =    -13789.12728700
  -exchange      EXHF   =         0.00000000
  -V(xc)+E(xc)   XCENC  =      1150.83120413
  PAW double counting   =     62268.72051858   -61700.38018863
  entropy T*S    EENTRO =         0.00000000
  eigenvalues    EBANDS =     -2245.90870519
  atomic energy  EATOM  =     46009.82289571
  ---------------------------------------------------
  free energy    TOTEN  =      -222.80716055 eV

  energy without entropy =     -222.80716055  energy(sigma->0) =     -222.80716055


--------------------------------------------------------------------------------------------------------




----------------------------------------- Iteration    1(  13)  ---------------------------------------


    POTLOK:  cpu time    0.36: real time    0.38
    SETDIJ:  cpu time    0.02: real time    0.02
     EDDAV:  cpu time  114.14: real time  119.35
 BZINTS: Fermi energy:  4.674859;507.000000 electrons
         Band energy:***********;  BLOECHL correction:  0.000000
       DOS:  cpu time    0.05: real time    0.05
    CHARGE:  cpu time    4.55: real time    4.57
    MIXING:  cpu time    0.01: real time    0.01
    --------------------------------------------
      LOOP:  cpu time  119.13: real time  124.42

 eigenvalue-minimisations  :  8424
 total energy-change (2. order) :-0.1678480E-03  (-0.1025352E-03)
 number of electron     506.9999994 magnetization 
 augmentation part      140.9202190 magnetization 

 Broyden mixing:
  rms(total) = 0.59906E-02    rms(broyden)= 0.59906E-02
  rms(prec ) = 0.62356E-02
  weight for this iteration     100.00

 eigenvalues of (default mixing * dielectric matrix)
  average eigenvalue GAMMA=   1.5243
  2.5313  2.5313  1.5084  1.5084  1.2158  0.8354  1.0317  1.0317

 Free energy of the ion-electron system (eV)
  ---------------------------------------------------
  alpha Z        PSCENC =      1326.31949012
  Ewald energy   TEWEN  =    -33243.08508828
  -Hartree energ DENC   =    -13789.40971793
  -exchange      EXHF   =         0.00000000
  -V(xc)+E(xc)   XCENC  =      1150.86105634
  PAW double counting   =     62280.84131790   -61712.46875276
  entropy T*S    EENTRO =         0.00000000
  eigenvalues    EBANDS =     -2245.68852950
  atomic energy  EATOM  =     46009.82289571
  ---------------------------------------------------
  free energy    TOTEN  =      -222.80732840 eV

  energy without entropy =     -222.80732840  energy(sigma->0) =     -222.80732840


--------------------------------------------------------------------------------------------------------




----------------------------------------- Iteration    1(  14)  ---------------------------------------


    POTLOK:  cpu time    0.36: real time    0.37
    SETDIJ:  cpu time    0.02: real time    0.02
     EDDAV:  cpu time   85.23: real time   89.19
 BZINTS: Fermi energy:  4.675118;507.000000 electrons
         Band energy:***********;  BLOECHL correction:  0.000000
       DOS:  cpu time    0.06: real time    0.06
    --------------------------------------------
      LOOP:  cpu time   85.67: real time   89.68

 eigenvalue-minimisations  :  5496
 total energy-change (2. order) :-0.4541768E-04  (-0.6894866E-05)
 number of electron     506.9999994 magnetization 
 augmentation part      140.9202190 magnetization 

 Free energy of the ion-electron system (eV)
  ---------------------------------------------------
  alpha Z        PSCENC =      1326.31949012
  Ewald energy   TEWEN  =    -33243.08508828
  -Hartree energ DENC   =    -13789.57951252
  -exchange      EXHF   =         0.00000000
  -V(xc)+E(xc)   XCENC  =      1150.87426329
  PAW double counting   =     62268.20736524   -61699.81433960
  entropy T*S    EENTRO =         0.00000000
  eigenvalues    EBANDS =     -2245.55244777
  atomic energy  EATOM  =     46009.82289571
  ---------------------------------------------------
  free energy    TOTEN  =      -222.80737382 eV

  energy without entropy =     -222.80737382  energy(sigma->0) =     -222.80737382


--------------------------------------------------------------------------------------------------------




 average (electrostatic) potential at core
  the test charge radii are     1.0698  1.0774  0.9698
  (the norm of the test charge is              1.0000)
       1 -37.0115       2 -37.0107       3 -37.0107       4 -37.4312       5 -37.0079
       6 -37.0078       7 -37.4362       8 -37.0063       9 -96.7217      10 -96.7059
      11 -96.6217      12 -96.6249      13 -96.5143      14 -96.7183      15 -96.7183
      16 -96.6219      17 -96.7072      18 -96.6259      19 -96.7060      20 -96.7217
      21 -96.6260      22 -96.6195      23 -96.7183      24 -96.7183      25 -96.9032
      26 -86.7689      27 -86.8442      28 -86.9130      29 -86.6505      30 -86.8540
      31 -86.7713      32 -86.6454      33 -86.9107      34 -86.9282      35 -86.7710
      36 -86.7760      37 -86.9241      38 -86.7658      39 -86.7711      40 -86.9127
      41 -86.8485      42 -86.6484      43 -86.8525      44 -86.6453      45 -86.9027
      46 -86.8540      47 -86.7713      48 -86.8440      49 -86.7691      50 -86.6484
      51 -86.9071      52 -86.9025      53 -86.6486      54 -86.7760      55 -86.7712
      56 -86.7659      57 -86.7710
 
 
 
 E-fermi :   4.6751     XC(G=0):  -9.4511     alpha+bet :-10.0502


 k-point     1 :       0.0000    0.0000    0.0000
  band No.  band energies     occupation 
      1     -10.4363      2.00000
      2     -10.4269      2.00000
      3     -10.4256      2.00000
      4     -10.3236      2.00000
      5     -10.3226      2.00000
      6     -10.2884      2.00000
      7     -10.2869      2.00000
      8     -10.2784      2.00000
      9     -10.2783      2.00000
     10     -10.2370      2.00000
     11     -10.2306      2.00000
     12     -10.2270      2.00000
     13     -10.2257      2.00000
     14     -10.2038      2.00000
     15     -10.2023      2.00000
     16     -10.2019      2.00000
     17     -10.1560      2.00000
     18     -10.1556      2.00000
     19     -10.1100      2.00000
     20     -10.0815      2.00000
     21     -10.0815      2.00000
     22     -10.0686      2.00000
     23     -10.0590      2.00000
     24     -10.0587      2.00000
     25     -10.0586      2.00000
     26     -10.0578      2.00000
     27     -10.0182      2.00000
     28     -10.0051      2.00000
     29     -10.0047      2.00000
     30      -9.9789      2.00000
     31      -9.9568      2.00000
     32      -9.9566      2.00000
     33      -9.9548      2.00000
     34      -9.9536      2.00000
     35      -9.9530      2.00000
     36      -9.9446      2.00000
     37      -9.9445      2.00000
     38      -9.9375      2.00000
     39      -9.9372      2.00000
     40      -9.9254      2.00000
     41      -9.9215      2.00000
     42      -9.9132      2.00000
     43      -9.9124      2.00000
     44      -9.9098      2.00000
     45      -9.9092      2.00000
     46      -9.9084      2.00000
     47      -9.9043      2.00000
     48      -9.9037      2.00000
     49      -9.9021      2.00000
     50      -9.8936      2.00000
     51      -9.8888      2.00000
     52      -9.8888      2.00000
     53      -9.8861      2.00000
     54      -9.8854      2.00000
     55      -9.8802      2.00000
     56      -9.8759      2.00000
     57      -9.8743      2.00000
     58      -9.8725      2.00000
     59      -9.8705      2.00000
     60      -9.8651      2.00000
     61      -9.8648      2.00000
     62      -9.8608      2.00000
     63      -9.8586      2.00000
     64      -9.8583      2.00000
     65      -9.8523      2.00000
     66      -9.8521      2.00000
     67      -9.8191      2.00000
     68      -9.8188      2.00000
     69      -9.8155      2.00000
     70      -9.8150      2.00000
     71      -9.8112      2.00000
     72      -9.8032      2.00000
     73      -9.8029      2.00000
     74      -9.8024      2.00000
     75      -9.7966      2.00000
     76      -9.7962      2.00000
     77      -9.7923      2.00000
     78      -9.7917      2.00000
     79      -9.7883      2.00000
     80      -9.7877      2.00000
     81      -9.7837      2.00000
     82      -9.7755      2.00000
     83      -9.7117      2.00000
     84      -9.6833      2.00000
     85      -9.6832      2.00000
     86      -9.1376      2.00000
     87      -8.6912      2.00000
     88      -8.6737      2.00000
     89      -8.6406      2.00000
     90      -8.6402      2.00000
     91      -8.5514      2.00000
     92      -8.5506      2.00000
     93      -8.2241      2.00000
     94      -8.0112      2.00000
     95      -8.0024      2.00000
     96      -8.0009      2.00000
     97      -7.9617      2.00000
     98      -7.9294      2.00000
     99      -7.8428      2.00000
    100      -7.8420      2.00000
    101      -7.8260      2.00000
    102      -7.8066      2.00000
    103      -7.8064      2.00000
    104      -7.7361      2.00000
    105      -7.5945      2.00000
    106      -7.5941      2.00000
    107      -7.5846      2.00000
    108      -7.5831      2.00000
    109      -7.3044      2.00000
    110      -7.2380      2.00000
    111      -7.2374      2.00000
    112      -7.2208      2.00000
    113      -7.2199      2.00000
    114      -7.1870      2.00000
    115      -7.1816      2.00000
    116      -7.1026      2.00000
    117      -7.1011      2.00000
    118      -4.3379      2.00000
    119      -4.3211      2.00000
    120      -4.1718      2.00000
    121      -4.1710      2.00000
    122      -4.1470      2.00000
    123      -4.1457      2.00000
    124      -4.0301      2.00000
    125      -4.0301      2.00000
    126      -4.0098      2.00000
    127      -4.0096      2.00000
    128      -3.8237      2.00000
    129      -3.8055      2.00000
    130      -3.8054      2.00000
    131      -3.7948      2.00000
    132      -3.7946      2.00000
    133      -3.7629      2.00000
    134      -3.7503      2.00000
    135      -3.7215      2.00000
    136      -3.7212      2.00000
    137      -3.7008      2.00000
    138      -3.7007      2.00000
    139      -3.6813      2.00000
    140      -3.6725      2.00000
    141      -3.6725      2.00000
    142      -3.6610      2.00000
    143      -3.6561      2.00000
    144      -3.6557      2.00000
    145      -3.6553      2.00000
    146      -3.6549      2.00000
    147      -3.6514      2.00000
    148      -3.6512      2.00000
    149      -3.6505      2.00000
    150      -3.6502      2.00000
    151      -3.6408      2.00000
    152      -3.6408      2.00000
    153      -3.6397      2.00000
    154      -3.6396      2.00000
    155      -3.6358      2.00000
    156      -3.6357      2.00000
    157      -3.6254      2.00000
    158      -2.2381      2.00000
    159      -1.7349      2.00000
    160      -1.7070      2.00000
    161      -1.7060      2.00000
    162      -1.2755      2.00000
    163      -1.2754      2.00000
    164      -1.2620      2.00000
    165      -1.2604      2.00000
    166      -1.2567      2.00000
    167      -1.2494      2.00000
    168      -1.1350      2.00000
    169      -1.1023      2.00000
    170      -0.8921      2.00000
    171      -0.8920      2.00000
    172      -0.8460      2.00000
    173      -0.8452      2.00000
    174      -0.7820      2.00000
    175      -0.2816      2.00000
    176      -0.1445      2.00000
    177      -0.1419      2.00000
    178      -0.0130      2.00000
    179       0.0357      2.00000
    180       0.0744      2.00000
    181       0.0744      2.00000
    182       0.1050      2.00000
    183       0.1052      2.00000
    184       0.5918      2.00000
    185       0.5935      2.00000
    186       0.7273      2.00000
    187       0.7393      2.00000
    188       0.7398      2.00000
    189       0.7887      2.00000
    190       0.8621      2.00000
    191       0.9980      2.00000
    192       0.9991      2.00000
    193       1.0914      2.00000
    194       1.0930      2.00000
    195       1.1353      2.00000
    196       1.1382      2.00000
    197       1.1481      2.00000
    198       1.1925      2.00000
    199       1.3280      2.00000
    200       1.3288      2.00000
    201       1.3666      2.00000
    202       1.3674      2.00000
    203       1.3689      2.00000
    204       1.3764      2.00000
    205       1.3866      2.00000
    206       1.3901      2.00000
    207       1.3917      2.00000
    208       1.4347      2.00000
    209       1.4360      2.00000
    210       1.4768      2.00000
    211       1.8224      2.00000
    212       1.8239      2.00000
    213       1.8908      2.00000
    214       1.9297      2.00000
    215       1.9305      2.00000
    216       1.9893      2.00000
    217       1.9905      2.00000
    218       2.0570      2.00000
    219       2.2118      2.00000
    220       2.2129      2.00000
    221       2.2558      2.00000
    222       2.2722      2.00000
    223       2.2998      2.00000
    224       2.3018      2.00000
    225       2.4479      2.00000
    226       2.4770      2.00000
    227       2.4775      2.00000
    228       2.5910      2.00000
    229       2.6037      2.00000
    230       2.6054      2.00000
    231       2.9471      2.00000
    232       2.9477      2.00000
    233       2.9732      2.00000
    234       3.0361      2.00000
    235       3.1030      2.00000
    236       3.1036      2.00000
    237       3.1136      2.00000
    238       3.1142      2.00000
    239       3.1350      2.00000
    240       3.1364      2.00000
    241       3.1541      2.00000
    242       3.1920      2.00000
    243       3.2006      2.00000
    244       3.2019      2.00000
    245       3.2853      2.00000
    246       3.2864      2.00000
    247       3.3247      2.00000
    248       3.3248      2.00000
    249       3.3481      2.00000
    250       3.3757      2.00000
    251       3.4138      2.00000
    252       3.4610      2.00000
    253       3.4621      2.00000
    254       4.1984      1.99885
    255       4.7529      0.00000
    256       5.4600      0.00000
    257       5.4605      0.00000
    258       5.6992      0.00000
    259       6.3351      0.00000
    260       6.4088      0.00000
    261       6.4103      0.00000
    262       6.5535      0.00000
    263       6.5563      0.00000
    264       6.6182      0.00000
    265       6.6315      0.00000
    266       6.8807      0.00000
    267       6.9091      0.00000
    268       6.9113      0.00000
    269       6.9599      0.00000
    270       6.9612      0.00000
    271       7.2985      0.00000
    272       7.3736      0.00000
    273       7.4226      0.00000
    274       7.6075      0.00000
    275       7.6097      0.00000
    276       7.7202      0.00000
    277       7.8330      0.00000
    278       7.9765      0.00000
    279       7.9782      0.00000
    280       7.9959      0.00000
    281       7.9960      0.00000
    282       8.2493      0.00000
    283       8.5377      0.00000
    284       8.5394      0.00000
    285       8.8310      0.00000
    286       8.8337      0.00000
    287       8.9560      0.00000
    288       8.9582      0.00000
    289       9.1064      0.00000
    290       9.1155      0.00000
    291       9.1167      0.00000
    292       9.1578      0.00000
    293       9.1613      0.00000
    294       9.2843      0.00000
    295       9.3806      0.00000
    296       9.3826      0.00000
    297       9.6450      0.00000
    298       9.6507      0.00000
    299       9.6904      0.00000
    300       9.6930      0.00000
    301       9.9796      0.00000
    302      10.0043      0.00000
    303      10.1048      0.00000
    304      10.1452      0.00000

 k-point     2 :       0.3333    0.0000    0.0000
  band No.  band energies     occupation 
      1     -10.4202      2.00000
      2     -10.4157      2.00000
      3     -10.4042      2.00000
      4     -10.3592      2.00000
      5     -10.3319      2.00000
      6     -10.3070      2.00000
      7     -10.3012      2.00000
      8     -10.2937      2.00000
      9     -10.2886      2.00000
     10     -10.2626      2.00000
     11     -10.2367      2.00000
     12     -10.2302      2.00000
     13     -10.2196      2.00000
     14     -10.1883      2.00000
     15     -10.1820      2.00000
     16     -10.1640      2.00000
     17     -10.1594      2.00000
     18     -10.1177      2.00000
     19     -10.1102      2.00000
     20     -10.0867      2.00000
     21     -10.0815      2.00000
     22     -10.0786      2.00000
     23     -10.0640      2.00000
     24     -10.0576      2.00000
     25     -10.0401      2.00000
     26     -10.0285      2.00000
     27     -10.0179      2.00000
     28     -10.0082      2.00000
     29     -10.0010      2.00000
     30      -9.9887      2.00000
     31      -9.9780      2.00000
     32      -9.9759      2.00000
     33      -9.9600      2.00000
     34      -9.9546      2.00000
     35      -9.9478      2.00000
     36      -9.9431      2.00000
     37      -9.9393      2.00000
     38      -9.9386      2.00000
     39      -9.9303      2.00000
     40      -9.9223      2.00000
     41      -9.9210      2.00000
     42      -9.9200      2.00000
     43      -9.9142      2.00000
     44      -9.9126      2.00000
     45      -9.9100      2.00000
     46      -9.9069      2.00000
     47      -9.9060      2.00000
     48      -9.9036      2.00000
     49      -9.9001      2.00000
     50      -9.8956      2.00000
     51      -9.8882      2.00000
     52      -9.8865      2.00000
     53      -9.8855      2.00000
     54      -9.8830      2.00000
     55      -9.8777      2.00000
     56      -9.8764      2.00000
     57      -9.8757      2.00000
     58      -9.8743      2.00000
     59      -9.8678      2.00000
     60      -9.8670      2.00000
     61      -9.8664      2.00000
     62      -9.8601      2.00000
     63      -9.8595      2.00000
     64      -9.8589      2.00000
     65      -9.8551      2.00000
     66      -9.8547      2.00000
     67      -9.8185      2.00000
     68      -9.8172      2.00000
     69      -9.8150      2.00000
     70      -9.8135      2.00000
     71      -9.8108      2.00000
     72      -9.8060      2.00000
     73      -9.8007      2.00000
     74      -9.7998      2.00000
     75      -9.7976      2.00000
     76      -9.7969      2.00000
     77      -9.7939      2.00000
     78      -9.7930      2.00000
     79      -9.7899      2.00000
     80      -9.7876      2.00000
     81      -9.7833      2.00000
     82      -9.7779      2.00000
     83      -9.7120      2.00000
     84      -9.6836      2.00000
     85      -9.6835      2.00000
[...]
 20        0.720   0.585   9.946  11.251
 21        0.717   0.590   9.948  11.255
 22        0.717   0.592   9.948  11.258
 23        0.720   0.586   9.946  11.252
 24        0.719   0.586   9.946  11.252
 25        0.902   0.478   9.912  11.292
 26        1.339   2.366   0.000   3.705
 27        1.339   2.371   0.000   3.710
 28        1.345   2.351   0.000   3.696
 29        1.338   2.372   0.000   3.710
 30        1.339   2.371   0.000   3.710
 31        1.339   2.366   0.000   3.705
 32        1.337   2.372   0.000   3.710
 33        1.345   2.351   0.000   3.696
 34        1.340   2.400   0.000   3.739
 35        1.339   2.365   0.000   3.704
 36        1.339   2.366   0.000   3.705
 37        1.340   2.399   0.000   3.739
 38        1.339   2.366   0.000   3.705
 39        1.339   2.366   0.000   3.705
 40        1.345   2.351   0.000   3.696
 41        1.339   2.371   0.000   3.710
 42        1.338   2.372   0.000   3.709
 43        1.339   2.371   0.000   3.710
 44        1.337   2.372   0.000   3.710
 45        1.346   2.349   0.000   3.695
 46        1.339   2.371   0.000   3.710
 47        1.339   2.366   0.000   3.705
 48        1.339   2.371   0.000   3.710
 49        1.339   2.366   0.000   3.705
 50        1.338   2.372   0.000   3.709
 51        1.346   2.349   0.000   3.695
 52        1.346   2.349   0.000   3.695
 53        1.337   2.372   0.000   3.710
 54        1.339   2.366   0.000   3.705
 55        1.339   2.366   0.000   3.705
 56        1.339   2.366   0.000   3.705
 57        1.339   2.365   0.000   3.704
------------------------------------------------
tot       58.654  87.836 245.519 392.008
 
    CHARGE:  cpu time    4.56: real time    4.58
    FORLOC:  cpu time    0.14: real time    0.14
    FORNL :  cpu time  100.77: real time  101.05
    FORCOR:  cpu time    0.48: real time    0.49
    FORHAR:  cpu time    0.22: real time    0.22
    MIXING:  cpu time    0.01: real time    0.01
    OFIELD:  cpu time    0.00: real time    0.00

 VOLUME and BASIS-vectors are now :
 -----------------------------------------------------------------------------
  energy-cutoff  :      600.00
  volume of cell :     1339.13
      direct lattice vectors                 reciprocal lattice vectors
    11.022353692  0.000000000  0.000000000     0.090724724  0.000000000  0.000000000
     0.000000000 11.022353692  0.000000000     0.000000000  0.090724724  0.000000000
     0.000000000  0.000000000 11.022353692     0.000000000  0.000000000  0.090724724

  length of vectors
    11.022353692 11.022353692 11.022353692     0.090724724  0.090724724  0.090724724


 FORCES acting on ions
    electron-ion (+dipol)            ewald-force                    non-local-force                 convergence-correction
 -----------------------------------------------------------------------------------------------
   0.122E+02 -.314E+01 -.123E+02   -.126E+02 0.339E+01 0.126E+02   0.394E+00 -.245E+00 -.394E+00   0.697E-03 -.127E-02 -.667E-03
   0.115E+02 0.115E+02 0.195E+01   -.119E+02 -.119E+02 -.220E+01   0.383E+00 0.405E+00 0.254E+00   0.598E-03 0.675E-03 0.135E-02
   -.191E+01 0.115E+02 -.115E+02   0.216E+01 -.119E+02 0.119E+02   -.255E+00 0.405E+00 -.382E+00   -.137E-02 0.728E-03 -.603E-03
   -.954E+02 -.946E+02 0.954E+02   0.971E+02 0.964E+02 -.971E+02   -.169E+01 -.178E+01 0.169E+01   0.183E-02 0.187E-02 -.177E-02
   -.125E+02 -.129E+02 -.407E+01   0.128E+02 0.132E+02 0.428E+01   -.372E+00 -.376E+00 -.197E+00   -.480E-03 -.513E-03 -.129E-02
   0.407E+01 -.129E+02 0.125E+02   -.427E+01 0.132E+02 -.129E+02   0.198E+00 -.376E+00 0.371E+00   0.123E-02 -.509E-03 0.447E-03
   0.952E+02 0.965E+02 -.952E+02   -.970E+02 -.982E+02 0.970E+02   0.179E+01 0.169E+01 -.179E+01   -.203E-02 -.195E-02 0.201E-02
   -.112E+02 0.334E+01 0.112E+02   0.116E+02 -.352E+01 -.116E+02   -.381E+00 0.179E+00 0.382E+00   -.527E-03 0.121E-02 0.525E-03
   -.617E+02 0.613E+02 -.867E+00   0.626E+02 -.623E+02 0.863E+00   -.934E+00 0.975E+00 -.362E-02   0.267E-03 -.153E-03 0.127E-03
   -.179E+00 0.117E+01 -.261E+01   0.207E+00 -.119E+01 0.253E+01   -.304E-01 0.246E-01 0.792E-01   -.468E-04 -.938E-04 -.929E-07
   -.777E+01 -.137E+02 0.142E+02   0.817E+01 0.140E+02 -.144E+02   -.409E+00 -.241E+00 0.241E+00   0.411E-03 -.128E-02 0.133E-02
   0.127E+02 0.624E+01 -.127E+02   -.130E+02 -.663E+01 0.130E+02   0.269E+00 0.398E+00 -.269E+00   0.125E-02 -.393E-03 -.132E-02
   -.283E+00 0.182E-01 0.295E+00   0.281E+00 -.101E-01 -.292E+00   0.707E-02 -.942E-02 -.743E-02   0.998E-04 0.348E-04 0.122E-04
   0.104E+01 -.611E+02 -.599E+02   -.103E+01 0.620E+02 0.609E+02   -.998E-02 -.937E+00 -.976E+00   -.159E-03 0.219E-03 0.222E-03
   0.597E+02 0.697E+00 0.609E+02   -.606E+02 -.660E+00 -.619E+02   0.965E+00 -.342E-01 0.993E+00   -.249E-03 -.632E-04 -.188E-03
   -.142E+02 -.137E+02 0.776E+01   0.144E+02 0.140E+02 -.817E+01   -.241E+00 -.241E+00 0.409E+00   -.132E-02 -.136E-02 -.406E-03
   0.694E+00 -.330E+01 -.704E+00   -.680E+00 0.323E+01 0.690E+00   -.159E-01 0.808E-01 0.162E-01   -.804E-05 -.166E-05 0.683E-04
   0.803E+01 0.138E+02 -.130E+02   -.839E+01 -.141E+02 0.132E+02   0.372E+00 0.278E+00 -.282E+00   -.328E-03 0.133E-02 -.134E-02
   0.260E+01 0.121E+01 0.206E+00   -.253E+01 -.123E+01 -.234E+00   -.784E-01 0.230E-01 0.311E-01   0.562E-04 -.722E-04 0.810E-04
   0.893E+00 0.613E+02 0.617E+02   -.888E+00 -.623E+02 -.626E+02   0.301E-02 0.975E+00 0.935E+00   -.498E-04 -.163E-03 -.231E-03
   0.129E+02 0.138E+02 -.802E+01   -.132E+02 -.141E+02 0.838E+01   0.284E+00 0.277E+00 -.373E+00   0.135E-02 0.135E-02 0.356E-03
   -.143E+02 -.990E+01 0.143E+02   0.145E+02 0.103E+02 -.145E+02   -.255E+00 -.371E+00 0.254E+00   -.126E-02 0.423E-03 0.133E-02
   -.609E+02 0.684E+00 -.597E+02   0.619E+02 -.648E+00 0.606E+02   -.992E+00 -.335E-01 -.964E+00   0.197E-03 -.150E-03 0.213E-03
   0.599E+02 -.611E+02 -.104E+01   -.609E+02 0.620E+02 0.103E+01   0.975E+00 -.936E+00 0.961E-02   -.266E-03 0.245E-03 0.138E-03
   0.895E+00 -.739E+00 -.896E+00   -.946E+00 0.738E+00 0.946E+00   0.459E-01 0.146E-01 -.460E-01   0.231E-03 -.286E-03 -.237E-03
   0.554E+02 0.626E+02 0.634E+02   -.545E+02 -.624E+02 -.629E+02   -.898E+00 -.226E+00 -.529E+00   -.540E-03 -.620E-03 -.164E-03
   -.714E+02 -.719E+02 0.530E+02   0.709E+02 0.715E+02 -.528E+02   0.447E+00 0.428E+00 -.253E+00   0.403E-03 0.372E-03 -.530E-03
   0.438E+02 0.491E+02 -.485E+02   -.446E+02 -.484E+02 0.478E+02   0.871E+00 -.669E+00 0.676E+00   -.999E-03 -.763E-03 0.741E-03
   0.562E+02 -.566E+02 -.562E+02   -.555E+02 0.559E+02 0.555E+02   -.722E+00 0.718E+00 0.722E+00   -.434E-03 0.137E-02 0.362E-03
   0.714E+02 0.713E+02 -.523E+02   -.710E+02 -.709E+02 0.520E+02   -.418E+00 -.435E+00 0.258E+00   -.450E-03 -.357E-03 0.552E-03
   -.630E+02 -.547E+02 -.626E+02   0.628E+02 0.538E+02 0.620E+02   0.267E+00 0.827E+00 0.495E+00   0.629E-03 0.564E-03 0.145E-03
   0.561E+02 -.558E+02 0.559E+02   -.554E+02 0.550E+02 -.552E+02   -.718E+00 0.711E+00 -.711E+00   -.137E-02 0.481E-03 -.328E-03
   -.468E+02 -.439E+02 0.468E+02   0.461E+02 0.448E+02 -.461E+02   0.721E+00 -.821E+00 -.721E+00   0.709E-03 0.985E-03 -.721E-03
   0.291E+02 0.317E+02 -.291E+02   -.274E+02 -.300E+02 0.274E+02   -.174E+01 -.171E+01 0.174E+01   -.834E-03 -.807E-03 0.951E-03
   0.627E+02 -.643E+02 0.545E+02   -.622E+02 0.641E+02 -.536E+02   -.498E+00 0.248E+00 -.838E+00   -.206E-03 0.593E-03 -.497E-03
   -.549E+02 0.638E+02 0.632E+02   0.540E+02 -.633E+02 -.629E+02   0.840E+00 -.475E+00 -.261E+00   0.633E-03 -.145E-03 -.678E-03
   -.304E+02 -.278E+02 0.304E+02   0.287E+02 0.260E+02 -.287E+02   0.171E+01 0.175E+01 -.171E+01   0.891E-03 0.834E-03 -.963E-03
   -.632E+02 0.549E+02 -.644E+02   0.626E+02 -.540E+02 0.642E+02   0.532E+00 -.889E+00 0.238E+00   0.154E-03 -.679E-03 0.561E-03
   0.641E+02 -.629E+02 -.549E+02   -.638E+02 0.624E+02 0.540E+02   -.218E+00 0.565E+00 0.895E+00   -.556E-03 0.179E-03 0.595E-03
   0.485E+02 0.491E+02 -.437E+02   -.478E+02 -.484E+02 0.446E+02   -.677E+00 -.668E+00 -.871E+00   -.757E-03 -.776E-03 0.986E-03
   -.717E+02 -.534E+02 0.717E+02   0.713E+02 0.532E+02 -.713E+02   0.435E+00 0.259E+00 -.434E+00   0.435E-03 0.427E-03 -.385E-03
   -.566E+02 0.558E+02 -.560E+02   0.559E+02 -.551E+02 0.553E+02   0.725E+00 -.725E+00 0.716E+00   0.138E-02 -.457E-03 0.291E-03
   0.711E+02 0.517E+02 -.712E+02   -.707E+02 -.514E+02 0.707E+02   -.428E+00 -.259E+00 0.428E+00   -.438E-03 -.436E-03 0.430E-03
   -.559E+02 -.558E+02 -.561E+02   0.552E+02 0.551E+02 0.554E+02   0.711E+00 0.710E+00 0.718E+00   0.340E-03 0.398E-03 0.139E-02
   -.489E+02 -.498E+02 0.503E+02   0.498E+02 0.492E+02 -.497E+02   -.947E+00 0.587E+00 -.574E+00   0.907E-03 0.716E-03 -.727E-03
   0.522E+02 0.714E+02 -.714E+02   -.520E+02 -.709E+02 0.710E+02   -.258E+00 -.436E+00 0.418E+00   -.501E-03 -.390E-03 0.385E-03
   0.626E+02 -.547E+02 0.630E+02   -.621E+02 0.538E+02 -.628E+02   -.496E+00 0.827E+00 -.267E+00   -.166E-03 0.625E-03 -.591E-03
   -.530E+02 -.719E+02 0.714E+02   0.528E+02 0.715E+02 -.709E+02   0.253E+00 0.427E+00 -.447E+00   0.436E-03 0.352E-03 -.387E-03
   -.634E+02 0.626E+02 -.554E+02   0.629E+02 -.624E+02 0.545E+02   0.529E+00 -.226E+00 0.899E+00   0.193E-03 -.585E-03 0.554E-03
   0.560E+02 0.558E+02 0.566E+02   -.553E+02 -.551E+02 -.559E+02   -.716E+00 -.725E+00 -.724E+00   -.286E-03 -.375E-03 -.140E-02
   0.521E+02 0.498E+02 -.521E+02   -.516E+02 -.508E+02 0.516E+02   -.528E+00 0.975E+00 0.527E+00   -.748E-03 -.853E-03 0.811E-03
   -.502E+02 -.498E+02 0.489E+02   0.497E+02 0.492E+02 -.498E+02   0.573E+00 0.588E+00 0.949E+00   0.716E-03 0.744E-03 -.902E-03
   -.557E+02 0.559E+02 0.556E+02   0.549E+02 -.551E+02 -.549E+02   0.700E+00 -.718E+00 -.700E+00   0.498E-03 -.137E-02 -.385E-03
   -.632E+02 0.638E+02 0.549E+02   0.629E+02 -.633E+02 -.540E+02   0.261E+00 -.474E+00 -.840E+00   0.629E-03 -.165E-03 -.572E-03
   0.549E+02 -.629E+02 -.641E+02   -.540E+02 0.624E+02 0.638E+02   -.896E+00 0.565E+00 0.217E+00   -.684E-03 0.156E-03 0.551E-03
   0.644E+02 0.549E+02 0.632E+02   -.642E+02 -.540E+02 -.626E+02   -.239E+00 -.889E+00 -.531E+00   -.524E-03 -.601E-03 -.164E-03
   -.545E+02 -.643E+02 -.627E+02   0.536E+02 0.641E+02 0.622E+02   0.838E+00 0.247E+00 0.498E+00   0.495E-03 0.609E-03 0.181E-03
 -----------------------------------------------------------------------------------------------
   -.419E-01 -.238E+00 0.380E-01   -.284E-13 0.284E-13 0.192E-12   0.416E-01 0.238E+00 -.380E-01   0.616E-04 -.164E-03 0.257E-03
 
 
 POSITION                                       TOTAL-FORCE (eV/Angst)
 -----------------------------------------------------------------------------------
     11.01823     10.99331      0.00409        -0.001574     -0.002897      0.001912
     11.02032      5.50581      5.53777        -0.002607      0.004231      0.007728
      5.48463      5.50594      0.00212        -0.008291      0.004234      0.002580
      5.77752      0.30138      5.24480         0.010188     -0.001884     -0.010060
      8.27231      2.75601      8.23617        -0.001099      0.006629      0.003488
      2.78615      2.75601      2.74997        -0.003511      0.006580      0.001335
      2.46767      8.01605      8.55449         0.008534     -0.002116     -0.008307
      8.27066      8.29393      2.75170         0.001416     -0.004272     -0.001238
      6.91575      6.85183      6.89018        -0.003332     -0.000805     -0.007513
      4.13480      9.63721      1.37429        -0.002819      0.006990      0.007639
      9.76176      1.41727      4.09158        -0.001402      0.006667     -0.009067
      1.33958      4.01586      9.68275         0.005926      0.008665     -0.005900
      9.64663      4.13398      1.37568         0.004693     -0.001242     -0.004858
      4.13158      1.40354      9.68179         0.005803     -0.002653     -0.005166
      1.34588      9.64407      4.10297         0.012546      0.003081      0.001894
      6.93081      1.41724      1.26059         0.009109      0.006360      0.001495
      4.13259      4.11586      6.88977        -0.001868      0.001040      0.001823
      9.52876      6.84909      9.68351         0.010547      0.005948     -0.005036
      9.64794      9.63721      6.88750        -0.007427      0.006447      0.003138
      4.13218      6.85183      4.10660         0.007263     -0.000880      0.003535
      1.33878      6.84909      1.49360         0.005466      0.005962     -0.010721
      6.93165      4.24837      4.09069         0.005001      0.000945     -0.005256
      6.91938      9.64404      9.67653        -0.001767      0.002958     -0.012365
      1.34063      1.40346      6.89086         0.005108     -0.002160     -0.006035
      4.14941      9.61250      6.87295        -0.004470      0.013540      0.004463
      4.26051      4.23886      4.25832         0.009051     -0.007262     -0.004706
      6.75326      1.24200      9.68830         0.007024      0.005884     -0.000267
      1.34491      9.70348      6.82924         0.011374      0.004933     -0.003949
      9.71880      6.77721      1.30360        -0.007952      0.007961      0.007499
      1.51393      7.02245      4.09159        -0.002574      0.003894     -0.014151
      9.52754      9.52454      9.52500         0.027972     -0.058961     -0.039197
      7.00284      4.06405      1.44559         0.004566     -0.022722      0.017875
      4.06800      1.39302      6.95437        -0.011100      0.015096      0.011337
      7.16321      1.65161      3.85914        -0.034952     -0.047882      0.035118
      1.49706      4.01539      7.00883         0.031001      0.006490      0.052642
      4.01357      7.00771      1.49509        -0.046650      0.011489     -0.018446
      1.10868      6.61715      9.91365         0.016430      0.023124     -0.016280
      6.76850      9.76801      1.26584        -0.009778      0.017603      0.012362
      9.75200      1.24925      6.76032        -0.007231      0.000879     -0.007400
      4.19318      9.70325      9.67742         0.003506      0.006048     -0.011412
      6.75315      6.84263      4.26911         0.006965      0.005741     -0.006350
      1.26975      4.20556      1.30385         0.001113     -0.003096      0.001214
      1.51165      1.41863      9.51078        -0.001757      0.011176      0.001773
      9.57670      4.06411      4.01944        -0.017598     -0.022888     -0.004341
      6.91363      9.58655      6.94619        -0.009363     -0.011495      0.013572
      6.93069      7.02248      9.50843         0.014889      0.003561      0.002506
      1.49737      9.52453      1.49487         0.038710     -0.058558     -0.028290
      1.33405      1.24204      4.26910         0.000286      0.005624     -0.006965
      6.76406      4.23891      6.76176         0.004479     -0.007562     -0.008691
      9.71849      4.20560      9.75254        -0.001404     -0.003437     -0.000807
      4.18873      6.85343      6.83358        -0.002910      0.008611      0.002873
      4.07642      9.58660      4.10872        -0.014689     -0.011659      0.009585
      9.57590      1.49012      1.44647        -0.021162      0.008290      0.021115
      9.52736      7.00742      7.00882         0.017678      0.013343      0.046594
      4.26207      1.24922      1.27042         0.007428      0.000862      0.006770
      9.75652      9.76808      4.25387        -0.012424      0.017030      0.009608
      4.01350      4.01547      9.52528        -0.052361      0.006515     -0.030701
 -----------------------------------------------------------------------------------
    total drift:                               -0.000258     -0.000698      0.000229


--------------------------------------------------------------------------------------------------------



  FREE ENERGIE OF THE ION-ELECTRON SYSTEM (eV)
  ---------------------------------------------------
  free  energy   TOTEN  =      -222.80737382 eV

  energy  without entropy=     -222.80737382  energy(sigma->0) =     -222.80737382
 


--------------------------------------------------------------------------------------------------------


    POTLOK:  cpu time    0.39: real time    0.41


--------------------------------------------------------------------------------------------------------


 writing wavefunctions
     LOOP+:  cpu time 2005.51: real time 2158.08
    4ORBIT:  cpu time    0.00: real time    0.00
 


 total charge     
 
# of ion     s       p       d       tot
----------------------------------------
  1        0.407   0.281   9.561  10.248
  2        0.407   0.280   9.561  10.248
  3        0.407   0.280   9.561  10.248
  4        0.433   0.294   9.558  10.285
  5        0.407   0.279   9.561  10.246
  6        0.407   0.279   9.561  10.246
  7        0.434   0.295   9.558  10.287
  8        0.407   0.279   9.561  10.246
  9        0.720   0.585   9.946  11.251
 10        0.741   0.565   9.937  11.243
 11        0.717   0.592   9.948  11.257
 12        0.717   0.591   9.948  11.256
 13        0.720   0.592   9.949  11.261
 14        0.719   0.586   9.946  11.252
 15        0.720   0.586   9.946  11.252
 16        0.717   0.592   9.948  11.257
 17        0.741   0.564   9.937  11.242
 18        0.717   0.590   9.948  11.255
 19        0.741   0.565   9.937  11.243
 20        0.720   0.585   9.946  11.251
 21        0.717   0.590   9.948  11.255
 22        0.717   0.592   9.948  11.258
 23        0.720   0.586   9.946  11.252
 24        0.719   0.586   9.946  11.252
 25        0.902   0.478   9.912  11.292
 26        1.339   2.366   0.000   3.705
 27        1.339   2.371   0.000   3.710
 28        1.345   2.351   0.000   3.696
 29        1.338   2.372   0.000   3.710
 30        1.339   2.371   0.000   3.710
 31        1.339   2.366   0.000   3.705
 32        1.337   2.372   0.000   3.710
 33        1.345   2.351   0.000   3.696
 34        1.340   2.400   0.000   3.739
 35        1.339   2.365   0.000   3.704
 36        1.339   2.366   0.000   3.705
 37        1.340   2.399   0.000   3.739
 38        1.339   2.366   0.000   3.705
 39        1.339   2.366   0.000   3.705
 40        1.345   2.351   0.000   3.696
 41        1.339   2.371   0.000   3.710
 42        1.338   2.372   0.000   3.709
 43        1.339   2.371   0.000   3.710
 44        1.337   2.372   0.000   3.710
 45        1.346   2.349   0.000   3.695
 46        1.339   2.371   0.000   3.710
 47        1.339   2.366   0.000   3.705
 48        1.339   2.371   0.000   3.710
 49        1.339   2.366   0.000   3.705
 50        1.338   2.372   0.000   3.709
 51        1.346   2.349   0.000   3.695
 52        1.346   2.349   0.000   3.695
 53        1.337   2.372   0.000   3.710
 54        1.339   2.366   0.000   3.705
 55        1.339   2.366   0.000   3.705
 56        1.339   2.366   0.000   3.705
 57        1.339   2.365   0.000   3.704
------------------------------------------------
tot       58.654  87.836 245.519 392.008
 
 BZINTS: Fermi energy:  4.675118;507.000000 electrons
         Band energy:***********;  BLOECHL correction:  0.000000

 total amount of memory used by VASP on root node   352987. kBytes
========================================================================

   base      :      30000. kBytes
   nonl-proj :      77896. kBytes
   fftplans  :      18482. kBytes
   grid      :      32575. kBytes
   one-center:        233. kBytes
   wavefun   :     193801. kBytes
 
  
  
 General timing and accounting informations for this job:
 ========================================================
  
                  Total CPU time used (sec):     2192.789
                            User time (sec):     2128.217
                          System time (sec):       64.572
                         Elapsed time (sec):     6299.969
  
                   Maximum memory used (kb):      408296.
                   Average memory used (kb):           0.
  
                          Minor page faults:        50136
                          Major page faults:            0
                 Voluntary context switches:      5396828
